Program Version,EnergyPlus, Version 9.3.0-baff08990c, YMD=2020.06.10 20:58
1,5,Environment Title[],Latitude[deg],Longitude[deg],Time Zone[],Elevation[m]
2,8,Day of Simulation[],Month[],Day of Month[],DST Indicator[1=yes 0=no],Hour[],StartMinute[],EndMinute[],DayType
3,5,Cumulative Day of Simulation[],Month[],Day of Month[],DST Indicator[1=yes 0=no],DayType  ! When Daily Report Variables Requested
4,2,Cumulative Days of Simulation[],Month[]  ! When Monthly Report Variables Requested
5,1,Cumulative Days of Simulation[] ! When Run Period Report Variables Requested
6,1,Calendar Year of Simulation[] ! When Annual Report Variables Requested
557,1,EMS,Average Conditioned Zone Temperature [C] !TimeStep
558,1,EMS,Conditioned Zone Air Energy Storage Rate [W] !TimeStep
559,1,EMS,Conditioned Zone Internal Convective Heat Gain [W] !TimeStep
560,1,EMS,Conditioned Zone Interzone Air Transfer Rate [W] !TimeStep
561,1,EMS,Conditioned Zone Outdoor Air Transfer Rate [W] !TimeStep
562,1,EMS,Conditioned Zone Surface Convection Rate [W] !TimeStep
563,1,EMS,Conditioned Zone System Air Transfer Rate [W] !TimeStep
564,1,EMS,Conditioned Zone System Convective Heat Gain Rate [W] !TimeStep
565,1,EMS,Current Overall COP [] !TimeStep
566,1,EMS,Current Total Capacity [W] !TimeStep
567,1,EMS,Potential Overall COP [] !TimeStep
12,1,Electricity:Facility [J] !TimeStep
433,1,Gas:Facility [J] !TimeStep
End of Data Dictionary
1,RUN PERIOD 1,  40.13,-105.24,  -7.00,1689.00
2,1, 7,13, 1, 1, 0.00, 5.00,Thursday
557,22.777675882456124
558,0.018958688403118336
559,778.9949071386421
560,0.0
561,-38.46315632556701
562,715.3946162830938
563,-1455.9042722615898
564,0.0
565,3.751226143623339
566,10317.478363740222
567,4.502204875301769
12,272145.50086702549
433,2901.1405503252715
2,1, 7,13, 1, 1, 5.00,10.00,Thursday
557,22.77768099404127
558,0.017251717796977256
559,756.0309961670316
560,-11.61256238434676
561,-38.11173074511032
562,686.4160222567575
563,-1392.7144959720213
564,0.0
565,3.7418460450569728
566,10315.090531020749
567,4.497974917789588
12,265462.0045630707
433,2901.1405503252715
2,1, 7,13, 1, 1,10.00,15.00,Thursday
557,22.77768480528907
558,0.012856660004353444
559,734.0499145622307
560,-11.313504398511455
561,-37.786196787798079
562,658.7976713737377
563,-1343.7424343334195
564,0.0
565,3.7337741963879198
566,10312.70090815598
567,4.493737578690257
12,260266.2691274597
433,2901.1405503252715
2,1, 7,13, 1, 1,15.00,20.00,Thursday
557,22.777688072145737
558,0.011014763236115904
559,717.1249104317815
560,-11.063188050440936
561,-37.48357172719136
562,631.8158937317346
563,-1300.387139453645
564,0.0
565,3.72621649252317
566,10310.3094951459
567,4.489492922149225
12,255649.3871450359
433,2901.1405503252715
2,1, 7,13, 1, 1,20.00,25.00,Thursday
557,22.777691036998158
558,0.00999153389023885
559,702.5976507321151
560,-10.772950562355569
561,-37.2007918561294
562,605.3891274323961
563,-1260.0070204113986
564,0.0
565,3.7189288856308608
566,10307.916291990523
567,4.485241012219665
12,251331.94589619025
433,2901.1405503252715
2,1, 7,13, 1, 1,25.00,30.00,Thursday
557,22.777693848290587
558,0.009469324318316042
559,689.4278221143078
560,-10.448527713877639
561,-36.93473139698824
562,579.5012605780745
563,-1221.5398854540909
564,0.0
565,3.7118189690333835
566,10305.52129868984
567,4.48098191286073
12,247208.5200211199
433,2901.1405503252715
2,1, 7,13, 1, 1,30.00,35.00,Thursday
557,22.77769658832163
558,0.009224699287899615
559,677.0571498678075
560,-10.112044389865894
561,-36.682231196969727
562,554.1621209590668
563,-1184.4189466366148
564,0.0
565,3.704837759138138
566,10303.124515243855
567,4.476715687935831
12,243223.34002711689
433,2901.1405503252715
2,1, 7,13, 1, 1,35.00,40.00,Thursday
557,22.777699286888905
558,0.009080580933963056
559,665.1735561424548
560,-9.777343761046453
561,-36.440122549730407
562,529.3953180924483
563,-1148.3452304357425
564,0.0
565,3.697958256767464
566,10300.725941652565
567,4.4724424012109209
12,239345.84515171627
433,2901.1405503252715
2,1, 7,13, 1, 1,40.00,45.00,Thursday
557,22.777701944378256
558,0.008937899129595315
559,653.6290005800249
560,-9.449464798717834
561,-36.20524900391109
562,505.22679759581868
563,-1113.1948070672436
564,0.0
565,3.691168286706245
566,10298.325577915975
567,4.468162116352792
12,235562.63533255217
433,2901.1405503252715
2,1, 7,13, 1, 1,45.00,50.00,Thursday
557,22.777704506340347
558,0.00861231745722593
559,642.3704505311914
560,-9.129450642183095
561,-35.974484900260168
562,481.7726196702365
563,-1079.0330667065705
564,0.0
565,3.6844728356867089
566,10295.923424034077
567,4.4638748969274
12,231880.5505596847
433,2901.1405503252715
2,1, 7,13, 1, 1,50.00,55.00,Thursday
557,22.777707116324867
558,0.0087693733009097
559,631.4183186815086
560,-8.818198872254229
561,-35.744756944964539
562,458.8948178509362
563,-1045.7432281678455
564,0.0
565,3.677860252692098
566,10293.519480006878
567,4.459580806398185
12,228286.6263699507
433,2901.1405503252715
2,1, 7,13, 1, 1,55.00,60.00,Thursday
557,22.777709722808713
558,0.008753240086635629
559,620.7342678362422
560,-8.514994800801738
561,-35.51305158703781
562,436.454682632204
563,-1013.1540121855214
564,0.0
565,3.6713139408447548
566,10291.113745834378
567,4.455279908124428
12,224761.7888040396
433,2901.1405503252715
2,1, 7,13, 1, 2, 0.00, 5.00,Thursday
557,22.777712424972206
558,0.009073652019992303
559,600.4647316511986
560,-8.222035002171112
561,-37.45353210724625
562,413.2773217070053
563,-968.0587882275858
564,0.0
565,3.674926264791198
566,10296.40399802208
567,4.464732892530124
12,210076.61674745888
433,2467.006449290023
2,1, 7,13, 1, 2, 5.00,10.00,Thursday
557,22.777714650117635
558,0.007471117901886456
559,585.4944411340365
560,-7.8930364604866629
561,-39.41394576447925
562,390.65860050344619
563,-928.8416195865142
564,0.0
565,3.6790313572823396
566,10301.685585906518
567,4.474152559239971
12,205585.76600232238
433,2467.006449290023
2,1, 7,13, 1, 2,10.00,15.00,Thursday
557,22.77771675870008
558,0.007079041626565219
559,572.3072041266627
560,-7.630569228676542
561,-41.396695447489268
562,368.28142836614867
563,-891.5556422366509
564,0.0
565,3.6832733946674676
566,10306.958509487687
567,4.4835382316291
12,201313.13503613964
433,2467.006449290023
2,1, 7,13, 1, 2,15.00,20.00,Thursday
557,22.77771877610346
558,0.006772255135914714
559,559.874995211216
560,-7.364078135565187
561,-43.404100430949089
562,346.3058322949342
563,-855.4075363638158
564,0.0
565,3.687576695506396
566,10312.222768765589
567,4.4928892307263459
12,197168.0499753721
433,2467.006449290023
2,1, 7,13, 1, 2,20.00,25.00,Thursday
557,22.777720746771057
558,0.006614707265373711
559,547.9909521925008
560,-7.079641681438986
561,-45.4383955494809
562,324.5680641911271
563,-820.0358975117453
564,0.0
565,3.691909357365011
566,10317.478363740222
567,4.502204875301769
12,193112.45407297516
433,2467.006449290023
2,1, 7,13, 1, 2,25.00,30.00,Thursday
557,22.777722697108627
558,0.006545814955770576
559,536.4797279218134
560,-6.782719237917931
561,-47.50173054367002
562,303.18314885827416
563,-785.373355505166
564,0.0
565,3.6962667552244978
566,10322.725294411588
567,4.511484481955895
12,189140.92927926855
433,2467.006449290023
2,1, 7,13, 1, 2,30.00,35.00,Thursday
557,22.777724642078768
558,0.006527149456739074
559,525.2508076436186
560,-6.482530651648396
561,-49.596168697819738
562,282.1786609629147
563,-751.34566707446
564,0.0
565,3.700642807446542
566,10327.963560779684
567,4.520727365210575
12,185246.36029759045
433,2467.006449290023
2,1, 7,13, 1, 2,35.00,40.00,Thursday
557,22.777726587472328
558,0.006527919223045189
559,514.2375059781494
560,-6.18458633713977
561,-51.72368590534211
562,261.5695450597226
563,-717.8936377237765
564,0.0
565,3.705032034417178
566,10333.193162844513
567,4.529932837601518
12,181422.38741586373
433,2467.006449290023
2,1, 7,13, 1, 2,40.00,45.00,Thursday
557,22.777728534780399
558,0.006533691709959809
559,503.4018050331969
560,-5.891153049063
561,-53.88617019899385
562,241.36686801151402
563,-684.9861652675087
564,0.0
565,3.7094311783024724
566,10338.414100606076
567,4.539100209772468
12,177665.3179214453
433,2467.006449290023
2,1, 7,13, 1, 2,45.00,50.00,Thursday
557,22.777730480048864
558,0.006526197244549753
559,492.7272535330197
560,-5.602973265228627
561,-56.085421463037167
562,221.58407706141254
563,-652.6177303063898
564,0.0
565,3.713839254435972
566,10343.626374064368
567,4.548228790570986
12,173974.16714513405
433,2467.006449290023
2,1, 7,13, 1, 2,50.00,55.00,Thursday
557,22.777732417992554
558,0.006500974683245723
559,482.2103375520908
560,-5.32035090861045
561,-58.323151652108609
562,202.2365104350264
563,-620.7981329856519
564,0.0
565,3.718256719248787
566,10348.829983219395
567,4.557317887145903
12,170349.65670881619
433,2467.006449290023
2,1, 7,13, 1, 2,55.00,60.00,Thursday
557,22.777734341684377
558,0.006452521933246219
559,471.85365381225167
560,-5.043558017453595
561,-60.60098522592375
562,183.35082818356137
563,-589.5547446411006
564,0.0
565,3.7226857222629197
566,10354.024928071154
567,4.566366805046344
12,166794.49833375836
433,2467.006449290023
2,1, 7,13, 1, 3, 0.00, 5.00,Thursday
557,22.777736545480683
558,0.007392061250561972
559,457.94999843294957
560,-4.773437905932667
561,-65.02262311309153
562,164.76555352171739
563,-552.9124656661686
564,0.0
565,3.7305454481411295
566,10362.0364370224
567,4.580270848990011
12,161218.5739181058
433,2534.6515561097428
2,1, 7,13, 1, 3, 5.00,10.00,Thursday
557,22.77773864619474
558,0.007046300571705369
559,445.7948447963631
560,-4.485450714159992
561,-69.57028041277016
562,146.5750274618837
563,-518.3088001999278
564,0.0
565,3.7384959046820498
566,10370.027251893946
567,4.594074691052335
12,157260.919447164
433,2534.6515561097428
2,1, 7,13, 1, 3,10.00,15.00,Thursday
557,22.777740886109105
558,0.007513213927158885
559,434.2523121752567
560,-4.221055531557731
561,-74.24305540027933
562,127.2059767147625
563,-482.98719893230887
564,0.0
565,3.7462770644038394
566,10377.997372685782
567,4.607775748859613
12,153234.0744961299
433,2534.6515561097428
2,1, 7,13, 1, 3,15.00,20.00,Thursday
557,22.777743110137409
558,0.007459930289115536
559,422.5063901365569
560,-3.943705276443893
561,-79.04005423750243
562,108.68566696833929
563,-448.2020102177802
564,0.0
565,3.7540047804952687
566,10385.946799397916
567,4.621371433930664
12,149275.47630025637
433,2534.6515561097428
2,1, 7,13, 1, 3,20.00,25.00,Thursday
557,22.777745431645145
558,0.007786902093454045
559,410.9909474536633
560,-3.661122892642073
561,-83.96039944233979
562,89.84179242137391
563,-413.20404508849597
564,0.0
565,3.7616070290875167
566,10393.87553203034
567,4.634859152637549
12,145302.89563402724
433,2534.6515561097428
2,1, 7,13, 1, 3,25.00,30.00,Thursday
557,22.777747818117093
558,0.008004810100885447
559,399.43373151862508
560,-3.370555042050942
561,-89.00322931211429
562,71.08634120027901
563,-378.13904631766436
564,0.0
565,3.769095934175006
566,10401.78357058306
567,4.648236307186665
12,141332.42819760039
433,2534.6515561097428
2,1, 7,13, 1, 3,30.00,35.00,Thursday
557,22.77775030079423
558,0.008327508157128754
559,387.8574830357162
560,-3.076851021115143
561,-94.16770021618129
562,52.39395339528835
563,-342.9991258922883
564,0.0
565,3.7764691104175269
566,10409.670915056076
567,4.661500296619788
12,137363.22716376643
433,2534.6515561097428
2,1, 7,13, 1, 3,35.00,40.00,Thursday
557,22.777752846803045
558,0.008539940536204438
559,376.2429852854556
560,-2.782292189090038
561,-99.4529868448077
562,33.77183505707654
563,-307.7716239187457
564,0.0
565,3.783723510064548
566,10417.537565449386
567,4.674648517834621
12,133393.67802880897
433,2534.6515561097428
2,1, 7,13, 1, 3,40.00,45.00,Thursday
557,22.777755475105037
558,0.008815974640299734
559,364.57779599366298
560,-2.4879363486838939
561,-104.85828436941313
562,15.15208275105008
563,-272.37530059464759
564,0.0
565,3.7908494039231117
566,10425.38352176299
567,4.6876783666243739
12,129414.49209499502
433,2534.6515561097428
2,1, 7,13, 1, 3,45.00,50.00,Thursday
557,22.77775811151494
558,0.008843173131034587
559,352.83084239039916
560,-2.1936729848673748
561,-110.38280647029882
562,-3.139403168415477
563,-237.10672830911816
564,0.0
565,3.797873434184633
566,10433.20878399689
567,4.700587238735831
12,125458.1377195218
433,2534.6515561097428
2,1, 7,13, 1, 3,50.00,55.00,Thursday
557,22.777760731356588
558,0.008787601617906777
559,341.09921181104365
560,-1.902180577227174
561,-116.0257873469489
562,-20.673741766147218
563,-202.48923689949738
564,0.0
565,3.8048445352216868
566,10441.01335215108
567,4.713372530945369
12,121582.23441340847
433,2534.6515561097428
2,1, 7,13, 1, 3,55.00,60.00,Thursday
557,22.777763537535156
558,0.009412624828959007
559,329.5571562084841
560,-1.6178477082166652
561,-121.78648838526823
562,-38.40632886081677
563,-167.73692924507899
564,0.0
565,3.809533002246055
566,10447.150603553746
567,4.7233615495825609
12,117706.90321941716
433,2534.6515561097428
2,1, 7,13, 1, 4, 0.00, 5.00,Thursday
557,22.777766441695229
558,0.009741282168795586
559,316.79909964288279
560,-1.3346695637283253
561,-124.18680690803189
562,-56.79968705726262
563,-134.46844444708069
564,0.0
565,3.8063075714015035
566,10447.150603553746
567,4.7233615495825609
12,114486.75795325624
433,3858.2928118777824
2,1, 7,13, 1, 4, 5.00,10.00,Thursday
557,22.777769110585618
558,0.008952131216872312
559,305.6133375741549
560,-1.06987406126005
561,-126.61829738159452
562,-74.98766145324342
563,-102.92956214011696
564,0.0
565,3.803249945936155
566,10447.150603553746
567,4.7233615495825609
12,110987.83725423477
433,3858.2928118777824
2,1, 7,13, 1, 4,10.00,15.00,Thursday
557,22.77777171183016
558,0.008725232587037032
559,294.99172210675888
560,-0.8199749184131759
561,-129.08113758560246
562,-93.09179665909768
563,-71.99018376612375
564,0.0
565,3.8002506027220237
566,10447.150603553746
567,4.7233615495825609
12,107550.14005805794
433,3858.2928118777824
2,1, 7,13, 1, 4,15.00,20.00,Thursday
557,22.77777426349484
558,0.008558931736553616
559,284.5715518403076
560,-0.5737406615164007
561,-131.57550617968014
562,-110.78997804331485
563,-41.62392946874008
564,0.0
565,3.797307021483429
566,10447.150603553746
567,4.7233615495825609
12,104171.07435166765
433,3858.2928118777824
2,1, 7,13, 1, 4,20.00,25.00,Thursday
557,22.77934176613836
558,5.25777594598615
559,274.3371655275818
560,-0.33152997401260655
561,-134.14629253164913
562,-130.2271160381873
563,0.0
564,0.0
565,0.0
566,10447.150603553746
567,4.7233615495825609
12,99531.57538283289
433,3858.2928118777824
2,1, 7,13, 1, 4,25.00,30.00,Thursday
557,22.776810999373497
558,-8.48886765877722
559,260.2922611059199
560,0.0
561,-136.65299849218628
562,-145.33326776426356
563,0.0
564,0.0
565,0.0
566,10447.150603553746
567,4.7233615495825609
12,99531.57538283289
433,3858.2928118777824
2,1, 7,13, 1, 4,30.00,35.00,Thursday
557,22.76986591023849
558,-23.29623774580011
559,263.4582005318856
560,0.0
561,-139.00550462547256
562,-155.50516325612186
563,0.0
564,0.0
565,0.0
566,10447.150603553746
567,4.7233615495825609
12,99531.57538283289
433,3858.2928118777824
2,1, 7,13, 1, 4,35.00,40.00,Thursday
557,22.77881075563157
558,30.003217938562096
559,400.63375813930647
560,0.0
561,-141.79313205796553
562,-179.48382987422489
563,0.0
564,0.0
565,0.0
566,10447.150603553746
567,4.7233615495825609
12,99531.57538283289
433,3858.2928118777824
2,1, 7,13, 1, 4,40.00,45.00,Thursday
557,22.773274178017119
558,-18.57140084790294
559,260.29194383804227
560,0.0
561,-144.40625677994047
562,-192.70154166041267
563,0.0
564,0.0
565,0.0
566,10447.150603553746
567,4.7233615495825609
12,99531.57538283289
433,3858.2928118777824
2,1, 7,13, 1, 4,45.00,50.00,Thursday
557,22.755439726394717
558,-59.82591381125385
559,260.2899970015214
560,0.0
561,-146.48029307304649
562,-191.81600421584774
563,0.0
564,0.0
565,0.0
566,10447.150603553746
567,4.7233615495825609
12,99531.57538283289
433,3858.2928118777824
2,1, 7,13, 1, 4,50.00,55.00,Thursday
557,22.733244345235446
558,-74.4603191545156
559,260.28840820445927
560,0.0
561,-148.27608685674853
562,-184.9065693153431
563,0.0
564,0.0
565,0.0
566,10447.150603553746
567,4.7233615495825609
12,99531.57538283289
433,3858.2928118777824
2,1, 7,13, 1, 4,55.00,60.00,Thursday
557,22.71125440058053
558,-73.77663202882622
559,260.2892327346882
560,0.0
561,-150.0393372193803
562,-178.57006364119062
563,0.0
564,0.0
565,0.0
566,10447.150603553746
567,4.7233615495825609
12,99531.57538283289
433,3858.2928118777824
2,1, 7,13, 1, 5, 0.00, 5.00,Thursday
557,22.6976068300307
558,-45.78995286966899
559,305.0062789155854
560,0.0
561,-150.6469856968978
562,-177.05286440942644
563,0.0
564,0.0
565,0.0
566,10447.150603553746
567,4.7233615495825609
12,130494.48943119642
433,5686.401053688722
2,1, 7,13, 1, 5, 5.00,10.00,Thursday
557,22.688074304643828
558,-31.98430653386057
559,305.0059714939982
560,0.0
561,-151.63507056468769
562,-183.17863037212883
563,0.0
564,0.0
565,0.0
566,10447.150603553746
567,4.7233615495825609
12,130494.48943119642
433,5686.401053688722
2,1, 7,13, 1, 5,10.00,15.00,Thursday
557,22.678191563830099
558,-33.16049531917016
559,305.0055888028402
560,0.0
561,-152.82469331718017
562,-190.9218778796496
563,0.0
564,0.0
565,0.0
566,10447.150603553746
567,4.7233615495825609
12,130494.48943119642
433,5686.401053688722
2,1, 7,13, 1, 5,15.00,20.00,Thursday
557,22.666177588926549
558,-40.31327564462407
559,305.0052009144111
560,0.0
561,-154.10816030099637
562,-196.77623982969505
563,0.0
564,0.0
565,0.0
566,10447.150603553746
567,4.7233615495825609
12,130494.48943119642
433,5686.401053688722
2,1, 7,13, 1, 5,20.00,25.00,Thursday
557,22.652046789532358
558,-47.418626637051577
559,305.00483700820475
560,0.0
561,-155.4651544435842
562,-200.4914489740111
563,0.0
564,0.0
565,0.0
566,10447.150603553746
567,4.7233615495825609
12,130494.48943119642
433,5686.401053688722
2,1, 7,13, 1, 5,25.00,30.00,Thursday
557,22.636369382609887
558,-52.61137062096924
559,305.00449765334727
560,0.0
561,-156.91633562157956
562,-202.65387470231915
563,0.0
564,0.0
565,0.0
566,10447.150603553746
567,4.7233615495825609
12,130494.48943119642
433,5686.401053688722
2,1, 7,13, 1, 5,30.00,35.00,Thursday
557,22.619651098551285
558,-56.10760864408592
559,305.0041743516565
560,0.0
561,-158.4880971850394
562,-203.8013012613868
563,0.0
564,0.0
565,0.0
566,10447.150603553746
567,4.7233615495825609
12,130494.48943119642
433,5686.401053688722
2,1, 7,13, 1, 5,35.00,40.00,Thursday
557,22.60219074560924
558,-58.60151479103872
559,305.00385954020779
560,0.0
561,-160.19908501391655
562,-204.31375458994649
563,0.0
564,0.0
565,0.0
566,10447.150603553746
567,4.7233615495825609
12,130494.48943119642
433,5686.401053688722
2,1, 7,13, 1, 5,40.00,45.00,Thursday
557,22.584136601253534
558,-60.598150990248388
559,305.00354898027578
560,0.0
561,-162.05934141801198
562,-204.36921547037
563,0.0
564,0.0
565,0.0
566,10447.150603553746
567,4.7233615495825609
12,130494.48943119642
433,5686.401053688722
2,1, 7,13, 1, 5,45.00,50.00,Thursday
557,22.57734219224758
558,-22.805744409315179
559,305.0094373806136
560,0.0
561,-164.41287160732044
562,-131.2433181135283
563,0.0
564,0.0
565,0.0
566,10447.150603553746
567,4.7233615495825609
12,130494.48943119642
433,5686.401053688722
2,1, 7,13, 1, 5,50.00,55.00,Thursday
557,22.58251844635889
558,17.374034457991983
559,305.01209218377059
560,0.0
561,-167.4935300317315
562,-99.25876912463643
563,0.0
564,0.0
565,0.0
566,10447.150603553746
567,4.7233615495825609
12,130494.48943119642
433,5686.401053688722
2,1, 7,13, 1, 5,55.00,60.00,Thursday
557,22.594968540092446
558,41.78684224570173
559,305.0118538625874
560,0.0
561,-171.19179538217203
562,-85.07913544787229
563,0.0
564,0.0
565,0.0
566,10447.150603553746
567,4.7233615495825609
12,130494.48943119642
433,5686.401053688722
2,1, 7,13, 1, 6, 0.00, 5.00,Thursday
557,22.631208796913858
558,121.63219855573628
559,426.59619824056628
560,0.0
561,-164.88457638469454
562,-81.6565092349789
563,0.0
564,0.0
565,0.0
566,10447.150603553746
567,4.7233615495825609
12,194219.89970509456
433,7656.646531875438
2,1, 7,13, 1, 6, 5.00,10.00,Thursday
557,22.68078956717473
558,166.39540773332846
559,426.59800718640727
560,0.0
561,-159.65191150626868
562,-89.82519815373277
563,0.0
564,0.0
565,0.0
566,10447.150603553746
567,4.7233615495825609
12,194219.89970509456
433,7656.646531875438
2,1, 7,13, 1, 6,10.00,15.00,Thursday
557,22.733954817670843
558,178.4109291889998
559,426.6003721271685
560,0.0
561,-154.99866448358007
562,-98.05831908157603
563,0.0
564,0.0
565,0.0
566,10447.150603553746
567,4.7233615495825609
12,194219.89970509456
433,7656.646531875438
2,1, 7,13, 1, 6,15.00,20.00,Thursday
557,22.77774585514372
558,146.94611676911684
559,426.6029136091575
560,0.0
561,-150.37653153267929
562,-97.18975218652727
563,-62.29638702115737
564,0.0
565,3.799308579069982
566,10447.150603553746
567,4.7233615495825609
12,201157.64390954172
433,7656.646531875438
2,1, 7,13, 1, 6,20.00,25.00,Thursday
557,22.77774376283464
558,-0.007021699957627673
559,447.54920615234939
560,-0.5096084197500259
561,-144.6081192033556
562,-53.713919425785999
563,-360.7120480008908
564,0.0
565,3.8282363463024295
566,10447.150603553746
567,4.7233615495825609
12,234104.96915555883
433,7656.646531875438
2,1, 7,13, 1, 6,25.00,30.00,Thursday
557,22.77774582617023
558,0.006925160298227066
559,547.4997305158162
560,-2.9599837671713056
561,-138.41148037004388
562,1.194441969275669
563,-358.3106949937285
564,0.0
565,3.828118567522261
566,10447.150603553746
567,4.7233615495825609
12,233971.8343867084
433,7656.646531875438
2,1, 7,13, 1, 6,30.00,35.00,Thursday
557,22.777736852559469
558,-0.030121093241186726
559,546.2785231485666
560,-2.981654079299666
561,-132.50196676118288
562,60.73174640492694
563,-471.59321118436119
564,0.0
565,3.8391667523111234
566,10447.150603553746
567,4.7233615495825609
12,246424.9245482228
433,7656.646531875438
2,1, 7,13, 1, 6,35.00,40.00,Thursday
557,22.777728728029858
558,-0.02727377542944407
559,583.4835643093297
560,-3.975654620028717
561,-126.86647450499334
562,121.95642977480527
563,-574.6114896680169
564,0.0
565,3.8492440825133769
566,10447.150603553746
567,4.7233615495825609
12,257721.36512178856
433,7656.646531875438
2,1, 7,13, 1, 6,40.00,45.00,Thursday
557,22.777720306482605
558,-0.02827368709002455
559,617.0165284499403
560,-4.909670453321702
561,-121.48934529417596
562,187.6026362275643
563,-678.2514192572289
564,0.0
565,3.8579221609600649
566,10446.052339544018
567,4.721578291704831
12,269038.60019505597
433,7656.646531875438
2,1, 7,13, 1, 6,45.00,50.00,Thursday
557,22.777712105571415
558,-0.02753570371287288
559,650.5388335926436
560,-5.8707191696714109
561,-116.3522032730259
562,257.1603063903307
563,-785.504145384606
564,0.0
565,3.85495389105347
566,10435.965700454875
567,4.705113940012039
12,280881.22681185128
433,7656.646531875438
2,1, 7,13, 1, 6,50.00,55.00,Thursday
557,22.777704425938109
558,-0.02578802358100194
559,684.9276363505309
560,-6.889194086228237
561,-111.43420355264107
562,321.56529392578059
563,-888.1955540925045
564,0.0
565,3.85131190575295
566,10425.844404152658
567,4.68844108631857
12,292232.02792949569
433,7656.646531875438
2,1, 7,13, 1, 6,55.00,60.00,Thursday
557,22.777696086281606
558,-0.02800717043754864
559,717.5640444339884
560,-7.892065062368296
561,-106.71211257666539
562,394.39128591704488
563,-997.3831298927088
564,0.0
565,3.848058243707158
566,10415.68845063737
567,4.6715653716672869
12,304271.0860599392
433,7656.646531875438
2,1, 7,13, 1, 7, 0.00, 5.00,Thursday
557,21.054364874460164
558,-5814.490182807053
559,768.4476910985111
560,-4.964831044072874
561,-47.96295425349592
562,2742.365481650421
563,-8609.853119353735
564,0.0
565,4.659080531846435
566,10397.599539746743
567,4.641168215646703
12,1110307.565579478
433,9614.853333304089
2,1, 7,13, 1, 7, 5.00,10.00,Thursday
557,20.751734120106567
558,-299.4958712911269
559,3223.456515837749
560,-63.15230656878964
561,-26.217169841281419
562,5264.611344708698
563,-8854.583620679752
564,0.0
565,4.627975447581571
566,10379.40171641586
567,4.610182718090194
12,1113639.8136543928
433,9614.853333304089
2,1, 7,13, 1, 7,10.00,15.00,Thursday
557,20.61806331378255
558,-438.465878957681
559,3191.8211546218419
560,-82.82618261225741
561,-13.142489247192657
562,5478.442198850235
563,-8956.153486342386
564,0.0
565,4.596311223149497
566,10361.094980644732
567,4.5786402300385868
12,1117092.5806448144
433,9614.853333304089
2,1, 7,13, 1, 7,15.00,20.00,Thursday
557,20.5564552680175
558,-463.54864040285198
559,3146.6072751753874
560,-81.85005947731639
561,-5.741550066370337
562,5542.819289337996
563,-8956.060322197352
564,0.0
565,4.555719105698381
566,10342.679332433352
567,4.546571965127384
12,1118471.1988028978
433,9614.853333304089
2,1, 7,13, 1, 7,20.00,25.00,Thursday
557,20.556212876961597
558,-174.62165482497418
559,3168.779782661023
560,-81.46055703538554
561,-0.5550348806244756
562,5451.387371830668
563,-8488.845668678156
564,0.0
565,4.471639837803899
566,10324.154771781721
567,4.514008939176912
12,1100394.5941276635
433,9614.853333304089
2,1, 7,13, 1, 7,25.00,30.00,Thursday
557,20.555235219979527
558,-3.990932166850893
559,3057.559781537774
560,-84.41780640260345
561,4.06468422619929
562,5367.925793300266
563,-8407.544290938113
564,0.0
565,4.427493951462168
566,10305.52129868984
567,4.48098191286073
12,1066599.740598214
433,9614.853333304089
2,1, 7,13, 1, 7,30.00,35.00,Thursday
557,20.555334333222956
558,-0.08011876781910621
559,3003.330207369213
560,-88.31192916853854
561,8.844769894105867
562,5291.650323821566
563,-8217.819581540007
564,0.0
565,4.373603753103688
566,10286.77891315771
567,4.447521337551954
12,1057896.6653778144
433,9614.853333304089
2,1, 7,13, 1, 7,35.00,40.00,Thursday
557,20.554828466799824
558,-0.20227598570839909
559,2910.948810009617
560,-87.5730321173317
561,13.979450392959393
562,5231.993822695617
563,-8065.9393289065
564,0.0
565,4.324304117100815
566,10267.92761518533
567,4.413657304423333
12,1048087.3236052787
433,9614.853333304089
2,1, 7,13, 1, 7,40.00,45.00,Thursday
557,20.554838754361727
558,-0.049351062248121389
559,2866.6806275716619
560,-85.90119057439608
561,19.57140927286173
562,5184.151297983464
563,-7984.754121091884
564,0.0
565,4.282680406761106
566,10248.967404772699
567,4.379419496854392
12,1043945.00142352
433,9614.853333304089
2,1, 7,13, 1, 7,45.00,50.00,Thursday
557,20.554850164804184
558,-0.029125815338342126
559,2844.381182441684
560,-84.79132065122372
561,25.69368557423826
562,5147.012976603638
563,-7932.446992075128
564,0.0
565,4.2441810559072918
566,10229.898281919817
567,4.3448371461771659
12,1043326.2830161603
433,9614.853333304089
2,1, 7,13, 1, 7,50.00,55.00,Thursday
557,20.554860971792228
558,-0.021367321278647854
559,2829.575112263825
560,-84.07137810782524
561,32.39085076276655
562,5120.611434923506
563,-7898.622868030813
564,0.0
565,4.207420435599254
566,10210.720246626686
567,4.309938990771709
12,1044724.8843297087
433,9614.853333304089
2,1, 7,13, 1, 7,55.00,60.00,Thursday
557,20.554870853493204
558,-0.018605952802492749
559,2819.2879583567166
560,-83.61897852271665
561,39.68893249543248
562,5103.307816069281
563,-7878.765430401456
564,0.0
565,4.171804228591578
566,10191.433298893304
567,4.274753238503353
12,1047523.5580833141
433,9614.853333304089
2,1, 7,13, 1, 8, 0.00, 5.00,Thursday
557,20.55488715920977
558,-0.02582761137293952
559,2723.0395503944789
560,-83.29522910012287
561,45.475981206549537
562,5081.559890451017
563,-7766.949676869352
564,0.0
565,4.132381137701849
566,10175.028506183326
567,4.244776547640275
12,1036382.8942733039
433,14488.823963746978
2,1, 7,13, 1, 8, 5.00,10.00,Thursday
557,20.554898169565559
558,-0.015944209262960645
559,2691.880273792671
560,-81.95199324397942
561,51.770072626402058
562,5069.1969428825509
563,-7730.996144160628
564,0.0
565,4.100227769748096
566,10158.545734743935
567,4.2146301611285958
12,1037073.8736050024
433,14488.823963746978
2,1, 7,13, 1, 8,10.00,15.00,Thursday
557,20.5549068340353
558,-0.016976519364194074
559,2680.424677299467
560,-81.61480886187769
561,58.612936955788658
562,5063.613764522981
563,-7721.119465162389
564,0.0
565,4.070339416316877
566,10141.98498457514
567,4.18433017634789
12,1040223.8257209101
433,14488.823963746978
2,1, 7,13, 1, 8,15.00,20.00,Thursday
557,20.55491438207693
558,-0.018890315142145999
559,2675.8117950238536
560,-81.6015100196895
561,66.03031085244328
562,5059.635657524057
563,-7719.95700837389
564,0.0
565,4.041050921866478
566,10125.346255676928
567,4.1538923620833378
12,1044162.2586254721
433,14488.823963746978
2,1, 7,13, 1, 8,20.00,25.00,Thursday
557,20.554921265841789
558,-0.020117985489921939
559,2673.3113210990616
560,-81.69535971034532
561,74.03466165518216
562,5058.161557563023
563,-7723.892490354644
564,0.0
565,4.012059740817613
566,10108.629548049308
567,4.123332148674755
12,1048568.330213184
433,14488.823963746978
2,1, 7,13, 1, 8,25.00,30.00,Thursday
557,20.554927668756066
558,-0.020768492248984018
559,2672.323906883979
560,-81.85204265245534
561,82.62756754534013
562,5059.002661792493
563,-7732.181378007523
564,0.0
565,3.9833249704789388
566,10091.83486169228
567,4.092664619271981
12,1053403.4058723846
433,14488.823963746978
2,1, 7,13, 1, 8,30.00,35.00,Thursday
557,20.554933865024958
558,-0.02118667101195685
559,2672.5281684879234
560,-82.05875757035307
561,91.80178010620654
562,5059.867924119879
563,-7742.218613185015
564,0.0
565,3.9546275007678477
566,10074.96219660584
567,4.061904502166166
12,1327193.9330078786
433,14488.823963746978
2,1, 7,13, 1, 8,35.00,40.00,Thursday
557,20.55493988144902
558,-0.021284700810330124
559,2673.2121878762939
560,-82.28402824914088
561,101.54281648209201
562,5061.5212864439
563,-7754.071108398498
564,0.0
565,3.9259936525253837
566,10058.011552789992
567,4.031066164164269
12,1459382.680489572
433,14488.823963746978
2,1, 7,13, 1, 8,40.00,45.00,Thursday
557,20.554945725086495
558,-0.021157330498279088
559,2674.4207391423849
560,-82.52381903828734
561,111.83001304686684
562,5064.587389340821
563,-7768.391742879817
564,0.0
565,3.897498237321252
566,10040.982930244734
567,4.000163604972057
12,1464964.9672235999