Program Version,EnergyPlus, Version 9.3.0-baff08990c, YMD=2020.06.10 20:52
1,5,Environment Title[],Latitude[deg],Longitude[deg],Time Zone[],Elevation[m]
2,8,Day of Simulation[],Month[],Day of Month[],DST Indicator[1=yes 0=no],Hour[],StartMinute[],EndMinute[],DayType
3,5,Cumulative Day of Simulation[],Month[],Day of Month[],DST Indicator[1=yes 0=no],DayType  ! When Daily Report Variables Requested
4,2,Cumulative Days of Simulation[],Month[]  ! When Monthly Report Variables Requested
5,1,Cumulative Days of Simulation[] ! When Run Period Report Variables Requested
6,1,Calendar Year of Simulation[] ! When Annual Report Variables Requested
557,1,EMS,Average Conditioned Zone Temperature [C] !TimeStep
558,1,EMS,Conditioned Zone Air Energy Storage Rate [W] !TimeStep
559,1,EMS,Conditioned Zone Internal Convective Heat Gain [W] !TimeStep
560,1,EMS,Conditioned Zone Interzone Air Transfer Rate [W] !TimeStep
561,1,EMS,Conditioned Zone Outdoor Air Transfer Rate [W] !TimeStep
562,1,EMS,Conditioned Zone Surface Convection Rate [W] !TimeStep
563,1,EMS,Conditioned Zone System Air Transfer Rate [W] !TimeStep
564,1,EMS,Conditioned Zone System Convective Heat Gain Rate [W] !TimeStep
565,1,EMS,Current Overall COP [] !TimeStep
566,1,EMS,Current Total Capacity [W] !TimeStep
567,1,EMS,Potential Overall COP [] !TimeStep
12,1,Electricity:Facility [J] !TimeStep
433,1,Gas:Facility [J] !TimeStep
End of Data Dictionary
1,RUN PERIOD 1,  40.13,-105.24,  -7.00,1689.00
2,1, 7,13, 1, 1, 0.00, 5.00,Thursday
557,22.777677136648117
558,0.018783997052877874
559,775.9559084922366
560,0.0
561,-38.463188742881019
562,709.1211962707225
563,-1446.592037979137
564,0.0
565,3.7503316828767105
566,10317.478363740222
567,4.502204875301769
12,271114.0497937097
433,2901.1405503252715
2,1, 7,13, 1, 1, 5.00,10.00,Thursday
557,22.77768219370184
558,0.017067656393228788
559,753.0632181765108
560,-11.52149718929239
561,-38.11176166104593
562,680.2951886822672
563,-1383.7170844554212
564,0.0
565,3.7409826769391039
566,10315.090531020749
567,4.497974917789588
12,264461.8153975466
433,2901.1405503252715
2,1, 7,13, 1, 1,10.00,15.00,Thursday
557,22.777685962760584
558,0.012714329352620265
559,731.1863944664176
560,-11.224441462092685
561,-37.786226440972658
562,652.8235971537956
563,-1334.9939686829787
564,0.0
565,3.732935763767768
566,10312.70090815598
567,4.493737578690257
12,259291.15704661466
433,2901.1405503252715
2,1, 7,13, 1, 1,15.00,20.00,Thursday
557,22.777689195190268
558,0.010898676253110508
559,714.3422901663188
560,-10.97594699651355
561,-37.48360038167874
562,625.98547095501
563,-1291.861408055171
564,0.0
565,3.725400508471554
566,10310.3094951459
567,4.489492922149225
12,254696.91463776169
433,2901.1405503252715
2,1, 7,13, 1, 1,20.00,25.00,Thursday
557,22.777692129396234
558,0.009888245976322557
559,699.8838858754474
560,-10.687886664484019
561,-37.20081966494104
562,599.6946961515326
563,-1251.6839536903995
564,0.0
565,3.7181334461170465
566,10307.916291990523
567,4.485241012219665
12,250400.18871322979
433,2901.1405503252715
2,1, 7,13, 1, 1,25.00,30.00,Thursday
557,22.77769490922104
558,0.00936332235871746
559,686.7741799394415
560,-10.365835789102257
561,-36.934758395600798
562,573.9421488091433
563,-1213.4099019400256
564,0.0
565,3.7110430787126735
566,10305.52129868984
567,4.48098191286073
12,246296.54635013594
433,2901.1405503252715
2,1, 7,13, 1, 1,30.00,35.00,Thursday
557,22.777697617541805
558,0.009117933401129286
559,674.4599346975602
560,-10.031764043643058
561,-36.682257399496737
562,548.7363192871859
563,-1176.4762844355012
564,0.0
565,3.7040807516155218
566,10303.124515243855
567,4.476715687935831
12,242330.5664483598
433,2901.1405503252715
2,1, 7,13, 1, 1,35.00,40.00,Thursday
557,22.777700285668844
558,0.008978142011548347
559,662.6311697500534
560,-9.699416900590258
561,-36.44014800198585
562,524.1021269057342
563,-1140.5876478507965
564,0.0
565,3.6972198015490376
566,10300.725941652565
567,4.4724424012109209
12,238472.062534147
433,2901.1405503252715
2,1, 7,13, 1, 1,40.00,45.00,Thursday
557,22.777702908153317
558,0.008820159221680866
559,651.1412074987385
560,-9.373826771282282
561,-36.205273642594708
562,500.06994215083275
563,-1105.6258998899908
564,0.0
565,3.690448610787683
566,10298.325577915975
567,4.468162116352792
12,234708.2851314778
433,2901.1405503252715
2,1, 7,13, 1, 1,45.00,50.00,Thursday
557,22.77770540008805
558,0.008376904765469236
559,639.9388569529276
560,-9.056088613056986
561,-35.974508004984787
562,476.8206709844654
563,-1071.7231889410053
564,0.0
565,3.6837783398222996
566,10295.923424034077
567,4.4638748969274
12,231053.43166025685
433,2901.1405503252715
2,1, 7,13, 1, 1,50.00,55.00,Thursday
557,22.777708038370226
558,0.00886444305374438
559,629.0662231023821
560,-8.747655521999278
561,-35.74478037138084
562,453.9685201611287
563,-1038.5349433082309
564,0.0
565,3.677176398339546
566,10293.519480006878
567,4.459580806398185
12,227469.5814396253
433,2901.1405503252715
2,1, 7,13, 1, 1,55.00,60.00,Thursday
557,22.777710616249864
558,0.008657171565573887
559,618.4103935125679
560,-8.44598208569436
561,-35.513074666006279
562,431.6355108061719
563,-1006.0803201733817
564,0.0
565,3.670643621228251
566,10291.113745834378
567,4.455279908124428
12,223958.3833147783
433,2901.1405503252715
2,1, 7,13, 1, 2, 0.00, 5.00,Thursday
557,22.77771328874078
558,0.008974005303337411
559,598.1803126515926
560,-8.15475244953874
561,-37.45355473701642
562,408.56498072299936
563,-961.1293262406177
564,0.0
565,3.674268693809551
566,10296.40399802208
567,4.464732892530124
12,209289.34400256095
433,2467.006449290023
2,1, 7,13, 1, 2, 5.00,10.00,Thursday
557,22.777715487947387
558,0.007384019033084451
559,583.2554830659605
560,-7.827058028755111
561,-39.413968010028387
562,386.05171644924647
563,-922.061807749744
564,0.0
565,3.6783870553479756
566,10301.685585906518
567,4.474152559239971
12,204815.42188340549
433,2467.006449290023
2,1, 7,13, 1, 2,10.00,15.00,Thursday
557,22.777717573770724
558,0.007002626916486601
559,570.1172451832871
560,-7.565695284008932
561,-41.39671738642551
562,363.7793340027931
563,-884.9285106520325
564,0.0
565,3.6826427078135657
566,10306.958509487687
567,4.4835382316291
12,200560.14499477336
433,2467.006449290023
2,1, 7,13, 1, 2,15.00,20.00,Thursday
557,22.777719568088864
558,0.006694753561778133
559,557.7339428218043
560,-7.300507002864364
561,-43.40412206593959
562,341.9071110260674
563,-848.9313915963767
564,0.0
565,3.686959568935222
566,10312.222768765589
567,4.4928892307263459
12,196432.32559429937
433,2467.006449290023
2,1, 7,13, 1, 2,20.00,25.00,Thursday
557,22.77772151702261
558,0.006541749619917636
559,545.8965729701884
560,-7.017614488982055
561,-45.43841689835625
562,320.27200660062479
563,-813.7075322425773
564,0.0
565,3.6913055668862788
566,10317.478363740222
567,4.502204875301769
12,192393.69141846157
433,2467.006449290023
2,1, 7,13, 1, 2,25.00,30.00,Thursday
557,22.777723444910089
558,0.006470460779875369
559,534.4298812026327
560,-6.722380905350647
561,-47.50175159003862
562,298.98888458178785
563,-779.1896370719874
564,0.0
565,3.695676050037748
566,10322.725294411588
567,4.511484481955895
12,188438.79146747519
433,2467.006449290023
2,1, 7,13, 1, 2,30.00,35.00,Thursday
557,22.77772536821776
558,0.0064544460118897569
559,523.2440682886876
560,-6.423927591799
561,-49.59618944282653
562,278.0856658166859
563,-745.3045805536812
564,0.0
565,3.7000650252573159
566,10327.963560779684
567,4.520727365210575
12,184560.61399294699
433,2467.006449290023
2,1, 7,13, 1, 2,35.00,40.00,Thursday
557,22.7777272931666
558,0.006459309286406513
559,512.2732277509215
560,-6.127714995255282
561,-51.72370636868368
562,257.57752867186999
563,-711.9942556290686
564,0.0
565,3.7044671105913795
566,10333.193162844513
567,4.529932837601518
12,180752.9135086894
433,2467.006449290023
2,1, 7,13, 1, 2,40.00,45.00,Thursday
557,22.777729218844148
558,0.006461109964752019
559,501.47985498254959
560,-5.835995398164492
561,-53.886190352149359
562,237.47614552704384
563,-679.2287026653843
564,0.0
565,3.7088791577642086
566,10338.414100606076
567,4.539100209772468
12,177012.12589864475
433,2467.006449290023
2,1, 7,13, 1, 2,45.00,50.00,Thursday
557,22.777731142142114
558,0.006452482164292588
559,490.8479071501101
560,-5.549514963359506
561,-56.085441276252428
562,217.79558731761387
563,-647.003400834517
564,0.0
565,3.713300280887077
566,10343.626374064368
567,4.548228790570986
12,173337.38246337864
433,2467.006449290023
2,1, 7,13, 1, 2,50.00,55.00,Thursday
557,22.777733058740539
558,0.006429364382963463
559,480.3741962862582
560,-5.268585559267681
561,-58.323171121407998
562,198.55254814172367
563,-615.3298393002992
564,0.0
565,3.7177310994522148
566,10348.829983219395
567,4.557317887145903
12,169729.59644140688
433,2467.006449290023
2,1, 7,13, 1, 2,55.00,60.00,Thursday
557,22.77773495935289
558,0.006375101901518414
559,470.06187376454468
560,-4.993492900887237
561,-60.60100430347359
562,179.77631851177038
563,-584.2385781638479
564,0.0
565,3.72217406637926
566,10354.024928071154
567,4.566366805046344
12,166191.83583804963
433,2467.006449290023
2,1, 7,13, 1, 3, 0.00, 5.00,Thursday
557,22.777737134788297
558,0.0072969251528659149
559,456.20479307297168
560,-4.725100530322994
561,-65.02264189957384
562,161.3197754861522
563,-547.7699028453494
564,0.0
565,3.7300494523520215
566,10362.0364370224
567,4.580270848990011
12,160636.056776525
433,2534.6515561097428
2,1, 7,13, 1, 3, 5.00,10.00,Thursday
557,22.777739222177403
558,0.007001598920507142
559,444.1048888422818
560,-4.438780802139629
561,-69.57029914884356
562,143.21200557419659
563,-513.302464120468
564,0.0
565,3.7380121252104687
566,10370.027251893946
567,4.594074691052335
12,156694.42948574233
433,2534.6515561097428
2,1, 7,13, 1, 3,10.00,15.00,Thursday
557,22.777741445551397
558,0.007457726565511266
559,432.60598958086816
560,-4.175650667942055
561,-74.24307412309662
562,123.92738472374369
563,-478.10774539340829
564,0.0
565,3.745804710016155
566,10377.997372685782
567,4.607775748859613
12,152682.54799275084
433,2534.6515561097428
2,1, 7,13, 1, 3,15.00,20.00,Thursday
557,22.777743644111035
558,0.007374495327667124
559,420.90014647075869
560,-3.8995689960638986
561,-79.04007267324619
562,105.52128473129146
563,-443.47560245002736
564,0.0
565,3.7535464271831118
566,10385.946799397916
567,4.621371433930664
12,148741.81643363089
433,2534.6515561097428
2,1, 7,13, 1, 3,20.00,25.00,Thursday
557,22.77774595653476
558,0.007756424877644974
559,409.43284537590275
560,-3.6185690358702518
561,-83.96041784799269
562,86.73108854916049
563,-408.5777425618831
564,0.0
565,3.761157742923009
566,10393.87553203034
567,4.634859152637549
12,144781.2418041942
433,2534.6515561097428
2,1, 7,13, 1, 3,25.00,30.00,Thursday
557,22.777748322973879
558,0.007937607709051335
559,397.90573682066897
560,-3.329228044754281
561,-89.00324757192414
562,68.06294364278418
563,-373.62907202995089
564,0.0
565,3.768657320130021
566,10401.78357058306
567,4.648236307186665
12,140824.5462934713
433,2534.6515561097428
2,1, 7,13, 1, 3,30.00,35.00,Thursday
557,22.777750793097615
558,0.008285393258290619
559,386.36485636897756
560,-3.0369133615322996
561,-94.16771836091823
562,49.41639682953843
563,-338.56886401021748
564,0.0
565,3.776037738744342
566,10409.670915056076
567,4.661500296619788
12,136865.05523031724
433,2534.6515561097428
2,1, 7,13, 1, 3,35.00,40.00,Thursday
557,22.777753316614846
558,0.008464490376985103
559,374.7735358290447
560,-2.743454823626365
561,-99.45300468222928
562,30.876948719440358
563,-303.44621194243379
564,0.0
565,3.7833018403611704
566,10417.537565449386
567,4.674648517834621
12,132907.97160617173
433,2534.6515561097428
2,1, 7,13, 1, 3,40.00,45.00,Thursday
557,22.77775592193806
558,0.008738890032364971
559,363.13999961973976
560,-2.4503982622763269
561,-104.85830173117245
562,12.337084109956767
563,-268.16008618678719
564,0.0
565,3.790438025426036
566,10425.38352176299
567,4.6876783666243739
12,128941.8357765041
433,2534.6515561097428
2,1, 7,13, 1, 3,45.00,50.00,Thursday
557,22.777758520998974
558,0.008717887261909113
559,351.4265814256312
560,-2.157472273856305
561,-110.38282293249108
562,-5.790815463522744
563,-233.08739680513677
564,0.0
565,3.797480681676099
566,10433.20878399689
567,4.700587238735831
12,125007.99866081831
433,2534.6515561097428
2,1, 7,13, 1, 3,50.00,55.00,Thursday
557,22.777761147023289
558,0.008808331682893764
559,339.757317303552
560,-1.8679961084748289
561,-116.0258038308279
562,-23.297612761903545
563,-198.55747333596538
564,0.0
565,3.804460039792907
566,10441.01335215108
567,4.713372530945369
12,121142.63716688642
433,2534.6515561097428
2,1, 7,13, 1, 3,55.00,60.00,Thursday
557,22.777763996453609
558,0.00955769318776981
559,328.24147264988576
560,-1.5848018091970993
561,-121.78650646090199
562,-41.30676428935517
563,-163.55362958787397
564,0.0
565,3.8091241324825559
566,10447.150603553746
567,4.7233615495825609
12,117240.13993355437
433,2534.6515561097428
2,1, 7,13, 1, 4, 0.00, 5.00,Thursday
557,22.777766847837709
558,0.009564249467376456
559,315.3957866586835
560,-1.3000555783211878
561,-124.18682426355344
562,-59.553619810369408
563,-130.3462735607202
564,0.0
565,3.8059052695983746
566,10447.150603553746
567,4.7233615495825609
12,114026.71467945002
433,3858.2928118777824
2,1, 7,13, 1, 4, 5.00,10.00,Thursday
557,22.77776949752308
558,0.008887704558227315
559,304.2288006678553
560,-1.0360105220475174
561,-126.61831361763086
562,-77.73436938015192
563,-98.83201892020964
564,0.0
565,3.802850684019876
566,10447.150603553746
567,4.7233615495825609
12,110530.53609213121
433,3858.2928118777824
2,1, 7,13, 1, 4,10.00,15.00,Thursday
557,22.777772082074145
558,0.008669230440601309
559,293.61404973156285
560,-0.7865140153775903
561,-129.0811532152576
562,-95.81420666934932
563,-67.92362406835267
564,0.0
565,3.7998549971148556
566,10447.150603553746
567,4.7233615495825609
12,107096.31158785858
433,3858.2928118777824
2,1, 7,13, 1, 4,15.00,20.00,Thursday
557,22.77777461771315
558,0.008505169716035009
559,283.20267197326947
560,-0.5407625206396372
561,-131.57552124571783
562,-113.47534066150056
563,-37.60269552049377
564,0.0
565,3.7969164728935844
566,10447.150603553746
567,4.7233615495825609
12,103722.35285266565
433,3858.2928118777824
2,1, 7,13, 1, 4,20.00,25.00,Thursday
557,22.77878779668795
558,3.3984460208458056
559,272.98154486557089
560,-0.29913429368042779
561,-134.13046939329025
562,-132.3284703509599
563,0.0
564,0.0
565,0.0
566,10447.150603553746
567,4.7233615495825609
12,99531.57538283289
433,3858.2928118777824
2,1, 7,13, 1, 4,25.00,30.00,Thursday
557,22.77568649411703
558,-10.402627113281497
559,260.2922544339221
560,0.0
561,-136.61295977071394
562,-146.71259062283998
563,0.0
564,0.0
565,0.0
566,10447.150603553746
567,4.7233615495825609
12,99531.57538283289
433,3858.2928118777824
2,1, 7,13, 1, 4,30.00,35.00,Thursday
557,22.768346885148348
558,-24.61969789021781
559,263.4582005375626
560,0.0
561,-138.94583318108188
562,-156.3781210014165
563,0.0
564,0.0
565,0.0
566,10447.150603553746
567,4.7233615495825609
12,99531.57538283289
433,3858.2928118777824
2,1, 7,13, 1, 4,35.00,40.00,Thursday
557,22.777060053539313
558,29.226262225106596
559,400.6335913288116
560,0.0
561,-141.72074746177055
562,-180.07445374405297
563,0.0
564,0.0
565,0.0
566,10447.150603553746
567,4.7233615495825609
12,99531.57538283289
433,3858.2928118777824
2,1, 7,13, 1, 4,40.00,45.00,Thursday
557,22.771389948422845
558,-19.019397231723894
559,260.2921229495904
560,0.0
561,-144.32614618069716
562,-193.13782497734787
563,0.0
564,0.0
565,0.0
566,10447.150603553746
567,4.7233615495825609
12,99531.57538283289
433,3858.2928118777824
2,1, 7,13, 1, 4,45.00,50.00,Thursday
557,22.75346525215167
558,-60.128986876612568
559,260.28982741421268
560,0.0
561,-146.3951537305462
562,-192.19286386648722
563,0.0
564,0.0
565,0.0
566,10447.150603553746
567,4.7233615495825609
12,99531.57538283289
433,3858.2928118777824
2,1, 7,13, 1, 4,50.00,55.00,Thursday
557,22.73120489494548
558,-74.67874499837999
559,260.2885952457186
560,0.0
561,-148.18731619277333
562,-185.19167190976419
563,0.0
564,0.0
565,0.0
566,10447.150603553746
567,4.7233615495825609
12,99531.57538283289
433,3858.2928118777824
2,1, 7,13, 1, 4,55.00,60.00,Thursday
557,22.709164744414705
558,-73.94552821048154
559,260.2892447985467
560,0.0
561,-149.94772214350076
562,-178.8174937654854
563,0.0
564,0.0
565,0.0
566,10447.150603553746
567,4.7233615495825609
12,99531.57538283289
433,3858.2928118777824
2,1, 7,13, 1, 5, 0.00, 5.00,Thursday
557,22.69547613411063
558,-45.92793710649919
559,305.0062928237707
560,0.0
561,-150.55323531391299
562,-177.27534905819324
563,0.0
564,0.0
565,0.0
566,10447.150603553746
567,4.7233615495825609
12,130494.48943119642
433,5686.401053688722
2,1, 7,13, 1, 5, 5.00,10.00,Thursday
557,22.685909823419025
558,-32.09787125764253
559,305.0059856664271
560,0.0
561,-151.53937905615363
562,-183.37784768359013
563,0.0
564,0.0
565,0.0
566,10447.150603553746
567,4.7233615495825609
12,130494.48943119642
433,5686.401053688722
2,1, 7,13, 1, 5,10.00,15.00,Thursday
557,22.6759993470475
558,-33.25377511955932
559,305.00560316459976
560,0.0
561,-152.72724488324105
562,-191.1038479399908
563,0.0
564,0.0
565,0.0
566,10447.150603553746
567,4.7233615495825609
12,130494.48943119642
433,5686.401053688722
2,1, 7,13, 1, 5,15.00,20.00,Thursday
557,22.6639623734363
558,-40.39071414499756
559,305.0052153854217
560,0.0
561,-154.00912483652986
562,-196.94627948444404
563,0.0
564,0.0
565,0.0
566,10447.150603553746
567,4.7233615495825609
12,130494.48943119642
433,5686.401053688722
2,1, 7,13, 1, 5,20.00,25.00,Thursday
557,22.64981208417188
558,-47.48434408265913
559,305.00485152022449
560,0.0
561,-155.3646634685848
562,-200.65317533356038
563,0.0
564,0.0
565,0.0
566,10447.150603553746
567,4.7233615495825609
12,130494.48943119642
433,5686.401053688722
2,1, 7,13, 1, 5,25.00,30.00,Thursday
557,22.634117758505484
558,-52.66850067958912
559,305.0045121574191
560,0.0
561,-156.81447780271993
562,-202.8096188917372
563,0.0
564,0.0
565,0.0
566,10447.150603553746
567,4.7233615495825609
12,130494.48943119642
433,5686.401053688722
2,1, 7,13, 1, 5,30.00,35.00,Thursday
557,22.617384470498597
558,-56.15834204175091
559,305.00418881583036
560,0.0
561,-158.3849272438253
562,-203.95274245803717
563,0.0
564,0.0
565,0.0
566,10447.150603553746
567,4.7233615495825609
12,130494.48943119642
433,5686.401053688722
2,1, 7,13, 1, 5,35.00,40.00,Thursday
557,22.599910599483346
558,-58.64728373495982
559,305.00387394467108
560,0.0
561,-160.09463558864804
562,-204.46197453126036
563,0.0
564,0.0
565,0.0
566,10447.150603553746
567,4.7233615495825609
12,130494.48943119642
433,5686.401053688722
2,1, 7,13, 1, 5,40.00,45.00,Thursday
557,22.5818441454463
558,-60.6398829214281
559,305.0035633129747
560,0.0
561,-161.95363261326947
562,-204.51495362627629
563,0.0
564,0.0
565,0.0
566,10447.150603553746
567,4.7233615495825609
12,130494.48943119642
433,5686.401053688722
2,1, 7,13, 1, 5,45.00,50.00,Thursday
557,22.57503657213909
558,-22.85008835659967
559,305.0094488735267
560,0.0
561,-164.30577893602726
562,-131.39828655951929
563,0.0
564,0.0
565,0.0
566,10447.150603553746
567,4.7233615495825609
12,130494.48943119642
433,5686.401053688722
2,1, 7,13, 1, 5,50.00,55.00,Thursday
557,22.58019996477953
558,17.330985205040215
559,305.0121017189114
560,0.0
561,-167.38486075640055
562,-99.40855159466887
563,0.0
564,0.0
565,0.0
566,10447.150603553746
567,4.7233615495825609
12,130494.48943119642
433,5686.401053688722
2,1, 7,13, 1, 5,55.00,60.00,Thursday
557,22.59263628921719
558,41.74091895489135
559,305.01186311288168
560,0.0
561,-171.08137463186206
562,-85.23832251357274
563,0.0
564,0.0
565,0.0
566,10447.150603553746
567,4.7233615495825609
12,130494.48943119642
433,5686.401053688722
2,1, 7,13, 1, 6, 0.00, 5.00,Thursday
557,22.628864341003916
558,121.59208851375881
559,426.596208991341
560,0.0
561,-164.77540026077623
562,-81.80001706080249
563,0.0
564,0.0
565,0.0
566,10447.150603553746
567,4.7233615495825609
12,194219.89970509456
433,7656.646531875438
2,1, 7,13, 1, 6, 5.00,10.00,Thursday
557,22.678436293450078
558,166.3669871923259
559,426.5980190388668
560,0.0
561,-159.54388007413957
562,-89.95387198491655
563,0.0
564,0.0
565,0.0
566,10447.150603553746
567,4.7233615495825609
12,194219.89970509456
433,7656.646531875438
2,1, 7,13, 1, 6,10.00,15.00,Thursday
557,22.73159649155805
558,178.39523459488204
559,426.6003848554703
560,0.0
561,-154.89183130153288
562,-98.17415752534163
563,0.0
564,0.0
565,0.0
566,10447.150603553746
567,4.7233615495825609
12,194219.89970509456
433,7656.646531875438
2,1, 7,13, 1, 6,15.00,20.00,Thursday
557,22.777753410776336
558,154.88497465359999
559,426.602926991352
560,0.0
561,-150.33758620148877
562,-99.3677393421293
563,-45.58948877111699
564,0.0
565,3.7976890846901458
566,10447.150603553746
567,4.7233615495825609
12,199298.28157119594
433,7656.646531875438
2,1, 7,13, 1, 6,20.00,25.00,Thursday
557,22.777743713431215
558,-0.03254384683179525
559,441.93364095946068
560,-0.3728120921332443
561,-144.6082382622251
562,-56.474671027781869
563,-361.78783847603776
564,0.0
565,3.828326342693695
566,10447.150603553746
567,4.7233615495825609
12,234206.69374847786
433,7656.646531875438
2,1, 7,13, 1, 6,25.00,30.00,Thursday
557,22.777746363350457
558,0.00889389928569058
559,547.8765715274547
560,-2.965773807297623
561,-138.41149452955029
562,-1.923332608890263
563,-352.88374364640927
564,0.0
565,3.8275821019241387
566,10447.150603553746
567,4.7233615495825609
12,233365.32079043715
433,7656.646531875438
2,1, 7,13, 1, 6,30.00,35.00,Thursday
557,22.777737406855065
558,-0.03006361610737919
559,544.4851439520303
560,-2.9336143571556194
561,-132.50198990702763
562,57.55702256059554
563,-466.6838200390985
564,0.0
565,3.8386775166438698
566,10447.150603553746
567,4.7233615495825609
12,245874.99372042219
433,7656.646531875438
2,1, 7,13, 1, 6,35.00,40.00,Thursday
557,22.777729309301419
558,-0.02718319347776704
559,581.8731820803899
560,-3.930300617010648
561,-126.86649818781655
562,119.03105040847993
563,-570.120299836786
564,0.0
565,3.848794043110829
566,10447.150603553746
567,4.7233615495825609
12,257218.1438669322
433,7656.646531875438
2,1, 7,13, 1, 6,40.00,45.00,Thursday
557,22.777720931212689
558,-0.02812775829273685
559,615.5518187374765
560,-4.866492541790347
561,-121.48937008415902
562,184.5135431001248
563,-673.7405869287314
564,0.0
565,3.857468198802365
566,10446.052339544018
567,4.721578291704831
12,268533.35954548747
433,7656.646531875438
2,1, 7,13, 1, 6,45.00,50.00,Thursday
557,22.777712770306264
558,-0.027401357463982716
559,649.0768818138826
560,-5.826005095136267
561,-116.3522292604714
562,253.97301501131455
563,-780.8994840463228
564,0.0
565,3.854489657304736
566,10435.965700454875
567,4.705113940012039
12,280364.57027529479
433,7656.646531875438
2,1, 7,13, 1, 6,50.00,55.00,Thursday
557,22.777705132084745
558,-0.02564894073295573
559,683.4455358702339
560,-6.842240237746296
561,-111.43423069878986
562,318.3481682415112
563,-883.5431093738362
564,0.0
565,3.850842331654467
566,10425.844404152658
567,4.68844108631857
12,291709.2695073628
433,7656.646531875438
2,1, 7,13, 1, 6,55.00,60.00,Thursday
557,22.77769683898209
558,-0.027850803063981995
559,716.0760686021899
560,-7.8433221121870109
561,-106.71214101530586
562,391.18321515936909
563,-992.7356321750606
564,0.0
565,3.847588663857275
566,10415.68845063737
567,4.6715653716672869
12,303748.27610062409
433,7656.646531875438
2,1, 7,13, 1, 7, 0.00, 5.00,Thursday
557,21.052619577502527
558,-5821.374973755651
559,766.9707144054253
560,-4.930200058449664
561,-47.917382821393179
562,2738.2583685569127
563,-8610.944085409785
564,0.0
565,4.659080531846435
566,10397.599539746743
567,4.641168215646703
12,1110307.565579478
433,9614.853333304089
2,1, 7,13, 1, 7, 5.00,10.00,Thursday
557,20.749682517590455
558,-299.570056174849
559,3224.145228166401
560,-63.0625574519342
561,-26.16914178941414
562,5264.723945599486
563,-8855.819509721865
564,0.0
565,4.627975447581571
566,10379.40171641586
567,4.610182718090194
12,1113639.8136543928
433,9614.853333304089
2,1, 7,13, 1, 7,10.00,15.00,Thursday
557,20.615925998880603
558,-438.7726112424458
559,3192.4225803102369
560,-82.75699653791662
561,-13.100941667711993
562,5478.771503103688
563,-8957.45600248252
564,0.0
565,4.596311223149497
566,10361.094980644732
567,4.5786402300385868
12,1117092.5806448144
433,9614.853333304089
2,1, 7,13, 1, 7,15.00,20.00,Thursday
557,20.55640666767977
558,-442.13433254625655
559,3147.1460692392586
560,-81.82971177449378
561,-5.738952689008215
562,5537.842914903092
563,-8912.010214134616
564,0.0
565,4.551035090535445
566,10342.679332433352
567,4.546571965127384
12,1117244.407774731
433,9614.853333304089
2,1, 7,13, 1, 7,20.00,25.00,Thursday
557,20.556140768235755
558,-157.58046304688677
559,3156.2745699516847
560,-80.97508820723886
561,-0.553915682499678
562,5445.636995441367
563,-8432.628984910729
564,0.0
565,4.465907920466929
566,10324.154771781721
567,4.514008939176912
12,1098063.7936337619
433,9614.853333304089
2,1, 7,13, 1, 7,25.00,30.00,Thursday
557,20.555251450030295
558,-3.5447113200304916
559,3041.943191484188
560,-83.67566540892574
561,4.0652977588803769
562,5362.496975748639
563,-8380.920340821083
564,0.0
565,4.424781187907122
566,10305.52129868984
567,4.48098191286073
12,1065423.7525285823
433,9614.853333304089
2,1, 7,13, 1, 7,30.00,35.00,Thursday
557,20.55534347669862
558,-0.07086184319053535
559,2996.854601655282
560,-87.80142566942175
561,8.84466679626928
562,5286.475474774708
563,-8206.447326522257
564,0.0
565,4.37242078866294
566,10286.77891315771
567,4.447521337551954
12,1056911.3554209944
433,9614.853333304089
2,1, 7,13, 1, 7,35.00,40.00,Thursday
557,20.554831035365717
558,-0.20344368629643726
559,2908.612360002082
560,-87.27711670334367
561,13.97938699547683
562,5227.094887910829
563,-8058.9485216139469
564,0.0
565,4.323551388999561
566,10267.92761518533
567,4.413657304423333
12,1047448.4477819394
433,9614.853333304089
2,1, 7,13, 1, 7,40.00,45.00,Thursday
557,20.554841059122276
558,-0.050129772560916958
559,2865.1800424780115
560,-85.71331252594558
561,19.57136228199596
562,5179.472099838404
563,-7978.763043629936
564,0.0
565,4.282002785852824
566,10248.967404772699
567,4.379419496854392
12,1043365.7363374769
433,9614.853333304089
2,1, 7,13, 1, 7,45.00,50.00,Thursday
557,20.554852297562225
558,-0.029835071939537506
559,2842.93916723241
560,-84.64353460483784
561,25.693638032723017
562,5142.523566640831
563,-7926.664552157873
564,0.0
565,4.2435040230348399
566,10229.898281919817
567,4.3448371461771659
12,1042736.7793697099
433,9614.853333304089
2,1, 7,13, 1, 7,50.00,55.00,Thursday
557,20.554862977722999
558,-0.021771705088610057
559,2828.1152727132855
560,-83.93674860339866
561,32.39080204263951
562,5116.440525001858
563,-7893.127351661639
564,0.0
565,4.2067608418478559
566,10210.720246626686
567,4.309938990771709
12,1044138.0148267443
433,9614.853333304089
2,1, 7,13, 1, 7,55.00,60.00,Thursday
557,20.554872784120627
558,-0.018807093867000699
559,2817.885889537261
560,-83.49195500134778
561,39.688882092954148
562,5099.1487078031409
563,-7873.331567095252
564,0.0
565,4.1711472172572769
566,10191.433298893304
567,4.274753238503353
12,1046927.9469603623
433,9614.853333304089
2,1, 7,13, 1, 8, 0.00, 5.00,Thursday
557,20.554889021120258
558,-0.025877244525546504
559,2721.6461626871898
560,-83.17153236764062
561,45.47592986455447
562,5077.537438177803
563,-7761.65734514511
564,0.0
565,4.1317401018721739
566,10175.028506183326
567,4.244776547640275
12,1035790.1519896735
433,14488.823963746978
2,1, 7,13, 1, 8, 5.00,10.00,Thursday
557,20.554899986067686
558,-0.015938664805605453
559,2690.516384263935
560,-81.83233099259803
561,51.77001997630731
562,5065.310307567403
563,-7725.865054251333
564,0.0
565,4.099604800985811
566,10158.545734743935
567,4.2146301611285958
12,1036489.6195390746
433,14488.823963746978
2,1, 7,13, 1, 8,10.00,15.00,Thursday
557,20.55490861587227
558,-0.016914536025433879
559,2679.103143494864
560,-81.49794566042681
561,58.612882623627459
562,5059.8531602526359
563,-7716.153854078901
564,0.0
565,4.06973545822546
566,10141.98498457514
567,4.18433017634789
12,1039650.1660209366
433,14488.823963746978
2,1, 7,13, 1, 8,15.00,20.00,Thursday
557,20.55491613425963
558,-0.018811917182960226
559,2674.53571089459
560,-81.48713727980709
561,66.0302547364908
562,5055.992613834623
563,-7715.151883269703
564,0.0
565,4.040465848243031
566,10125.346255676928
567,4.1538923620833378
12,1043599.7964369148
433,14488.823963746978
2,1, 7,13, 1, 8,20.00,25.00,Thursday
557,20.554922990693887
558,-0.020037741593659169
559,2672.0791424913179
560,-81.58334888903363
561,74.03460372298491
562,5054.628697661196
563,-7719.239095150172
564,0.0
565,4.011492774219661
566,10108.629548049308
567,4.123332148674755
12,1048016.8572982568
433,14488.823963746978
2,1, 7,13, 1, 8,25.00,30.00,Thursday
557,20.554929368989585
558,-0.02069106228902055
559,2671.1331736745617
560,-81.74223169518683
561,82.62750780514142
562,5055.57239186829
563,-7727.669843154864
564,0.0
565,3.9827750889663147
566,10091.83486169228
567,4.092664619271981
12,1052862.3465930015
433,14488.823963746978
2,1, 7,13, 1, 8,30.00,35.00,Thursday
557,20.5549355437307
558,-0.021090468310631499
559,2671.376334628505
560,-81.95097359854958
561,91.80171855511344
562,5056.534962362156
563,-7737.841223734506
564,0.0
565,3.954093880936734
566,10074.96219660584
567,4.061904502166166
12,1324022.1215779228
433,14488.823963746978
2,1, 7,13, 1, 8,35.00,40.00,Thursday
557,20.55494153669298
558,-0.02121175254369363
559,2672.0971982219118
560,-82.17814815303291
561,101.54275324493318
562,5058.279715823109
563,-7749.820094800394
564,0.0
565,3.9254754361054737
566,10058.011552789992
567,4.031066164164269
12,1458860.8491237956
433,14488.823963746978
2,1, 7,13, 1, 8,40.00,45.00,Thursday
557,20.554947359740308
558,-0.021084738663053563
559,2673.3405501585946
560,-82.41971779166073
561,111.82994814297041
562,5061.432588776702
563,-7764.260549083748
564,0.0
565,3.8969946628496827
566,10040.982930244734
567,4.000163604972057