Program Version,EnergyPlus, Version 9.3.0-baff08990c, YMD=2020.06.10 20:52
1,5,Environment Title[],Latitude[deg],Longitude[deg],Time Zone[],Elevation[m]
2,8,Day of Simulation[],Month[],Day of Month[],DST Indicator[1=yes 0=no],Hour[],StartMinute[],EndMinute[],DayType
3,5,Cumulative Day of Simulation[],Month[],Day of Month[],DST Indicator[1=yes 0=no],DayType  ! When Daily Meters Requested
4,2,Cumulative Days of Simulation[],Month[]  ! When Monthly Meters Requested
5,1,Cumulative Days of Simulation[] ! When Run Period Meters Requested
6,1,Calendar Year of Simulation[] ! When Annual Meters Requested
12,1,Electricity:Facility [J] !TimeStep
433,1,Gas:Facility [J] !TimeStep
435,7,Gas:Facility [J] !Daily [Value,Min,Hour,Minute,Max,Hour,Minute]
14,7,Electricity:Facility [J] !Daily [Value,Min,Hour,Minute,Max,Hour,Minute]
End of Data Dictionary
1,RUN PERIOD 1,  40.13,-105.24,  -7.00,1689.00
2,1, 7,13, 1, 1, 0.00, 5.00,Thursday
12,271114.0497937097
433,2901.1405503252715
2,1, 7,13, 1, 1, 5.00,10.00,Thursday
12,264461.8153975466
433,2901.1405503252715
2,1, 7,13, 1, 1,10.00,15.00,Thursday
12,259291.15704661466
433,2901.1405503252715
2,1, 7,13, 1, 1,15.00,20.00,Thursday
12,254696.91463776169
433,2901.1405503252715
2,1, 7,13, 1, 1,20.00,25.00,Thursday
12,250400.18871322979
433,2901.1405503252715
2,1, 7,13, 1, 1,25.00,30.00,Thursday
12,246296.54635013594
433,2901.1405503252715
2,1, 7,13, 1, 1,30.00,35.00,Thursday
12,242330.5664483598
433,2901.1405503252715
2,1, 7,13, 1, 1,35.00,40.00,Thursday
12,238472.062534147
433,2901.1405503252715
2,1, 7,13, 1, 1,40.00,45.00,Thursday
12,234708.2851314778
433,2901.1405503252715
2,1, 7,13, 1, 1,45.00,50.00,Thursday
12,231053.43166025685
433,2901.1405503252715
2,1, 7,13, 1, 1,50.00,55.00,Thursday
12,227469.5814396253
433,2901.1405503252715
2,1, 7,13, 1, 1,55.00,60.00,Thursday
12,223958.3833147783
433,2901.1405503252715
2,1, 7,13, 1, 2, 0.00, 5.00,Thursday
12,209289.34400256095
433,2467.006449290023
2,1, 7,13, 1, 2, 5.00,10.00,Thursday
12,204815.42188340549
433,2467.006449290023
2,1, 7,13, 1, 2,10.00,15.00,Thursday
12,200560.14499477336
433,2467.006449290023
2,1, 7,13, 1, 2,15.00,20.00,Thursday
12,196432.32559429937
433,2467.006449290023
2,1, 7,13, 1, 2,20.00,25.00,Thursday
12,192393.69141846157
433,2467.006449290023
2,1, 7,13, 1, 2,25.00,30.00,Thursday
12,188438.79146747519
433,2467.006449290023
2,1, 7,13, 1, 2,30.00,35.00,Thursday
12,184560.61399294699
433,2467.006449290023
2,1, 7,13, 1, 2,35.00,40.00,Thursday
12,180752.9135086894
433,2467.006449290023
2,1, 7,13, 1, 2,40.00,45.00,Thursday
12,177012.12589864475
433,2467.006449290023
2,1, 7,13, 1, 2,45.00,50.00,Thursday
12,173337.38246337864
433,2467.006449290023
2,1, 7,13, 1, 2,50.00,55.00,Thursday
12,169729.59644140688
433,2467.006449290023
2,1, 7,13, 1, 2,55.00,60.00,Thursday
12,166191.83583804963
433,2467.006449290023
2,1, 7,13, 1, 3, 0.00, 5.00,Thursday
12,160636.056776525
433,2534.6515561097428
2,1, 7,13, 1, 3, 5.00,10.00,Thursday
12,156694.42948574233
433,2534.6515561097428
2,1, 7,13, 1, 3,10.00,15.00,Thursday
12,152682.54799275084
433,2534.6515561097428
2,1, 7,13, 1, 3,15.00,20.00,Thursday
12,148741.81643363089
433,2534.6515561097428
2,1, 7,13, 1, 3,20.00,25.00,Thursday
12,144781.2418041942
433,2534.6515561097428
2,1, 7,13, 1, 3,25.00,30.00,Thursday
12,140824.5462934713
433,2534.6515561097428
2,1, 7,13, 1, 3,30.00,35.00,Thursday
12,136865.05523031724
433,2534.6515561097428
2,1, 7,13, 1, 3,35.00,40.00,Thursday
12,132907.97160617173
433,2534.6515561097428
2,1, 7,13, 1, 3,40.00,45.00,Thursday
12,128941.8357765041
433,2534.6515561097428
2,1, 7,13, 1, 3,45.00,50.00,Thursday
12,125007.99866081831
433,2534.6515561097428
2,1, 7,13, 1, 3,50.00,55.00,Thursday
12,121142.63716688642
433,2534.6515561097428
2,1, 7,13, 1, 3,55.00,60.00,Thursday
12,117240.13993355437
433,2534.6515561097428
2,1, 7,13, 1, 4, 0.00, 5.00,Thursday
12,114026.71467945002
433,3858.2928118777824
2,1, 7,13, 1, 4, 5.00,10.00,Thursday
12,110530.53609213121
433,3858.2928118777824
2,1, 7,13, 1, 4,10.00,15.00,Thursday
12,107096.31158785858
433,3858.2928118777824
2,1, 7,13, 1, 4,15.00,20.00,Thursday
12,103722.35285266565
433,3858.2928118777824
2,1, 7,13, 1, 4,20.00,25.00,Thursday
12,99531.57538283289
433,3858.2928118777824
2,1, 7,13, 1, 4,25.00,30.00,Thursday
12,99531.57538283289
433,3858.2928118777824
2,1, 7,13, 1, 4,30.00,35.00,Thursday
12,99531.57538283289
433,3858.2928118777824
2,1, 7,13, 1, 4,35.00,40.00,Thursday
12,99531.57538283289
433,3858.2928118777824
2,1, 7,13, 1, 4,40.00,45.00,Thursday
12,99531.57538283289
433,3858.2928118777824
2,1, 7,13, 1, 4,45.00,50.00,Thursday
12,99531.57538283289
433,3858.2928118777824
2,1, 7,13, 1, 4,50.00,55.00,Thursday
12,99531.57538283289
433,3858.2928118777824
2,1, 7,13, 1, 4,55.00,60.00,Thursday
12,99531.57538283289
433,3858.2928118777824
2,1, 7,13, 1, 5, 0.00, 5.00,Thursday
12,130494.48943119642
433,5686.401053688722
2,1, 7,13, 1, 5, 5.00,10.00,Thursday
12,130494.48943119642
433,5686.401053688722
2,1, 7,13, 1, 5,10.00,15.00,Thursday
12,130494.48943119642
433,5686.401053688722
2,1, 7,13, 1, 5,15.00,20.00,Thursday
12,130494.48943119642
433,5686.401053688722
2,1, 7,13, 1, 5,20.00,25.00,Thursday
12,130494.48943119642
433,5686.401053688722
2,1, 7,13, 1, 5,25.00,30.00,Thursday
12,130494.48943119642
433,5686.401053688722
2,1, 7,13, 1, 5,30.00,35.00,Thursday
12,130494.48943119642
433,5686.401053688722
2,1, 7,13, 1, 5,35.00,40.00,Thursday
12,130494.48943119642
433,5686.401053688722
2,1, 7,13, 1, 5,40.00,45.00,Thursday
12,130494.48943119642
433,5686.401053688722
2,1, 7,13, 1, 5,45.00,50.00,Thursday
12,130494.48943119642
433,5686.401053688722
2,1, 7,13, 1, 5,50.00,55.00,Thursday
12,130494.48943119642
433,5686.401053688722
2,1, 7,13, 1, 5,55.00,60.00,Thursday
12,130494.48943119642
433,5686.401053688722
2,1, 7,13, 1, 6, 0.00, 5.00,Thursday
12,194219.89970509456
433,7656.646531875438
2,1, 7,13, 1, 6, 5.00,10.00,Thursday
12,194219.89970509456
433,7656.646531875438
2,1, 7,13, 1, 6,10.00,15.00,Thursday
12,194219.89970509456
433,7656.646531875438
2,1, 7,13, 1, 6,15.00,20.00,Thursday
12,199298.28157119594
433,7656.646531875438
2,1, 7,13, 1, 6,20.00,25.00,Thursday
12,234206.69374847786
433,7656.646531875438
2,1, 7,13, 1, 6,25.00,30.00,Thursday
12,233365.32079043715
433,7656.646531875438
2,1, 7,13, 1, 6,30.00,35.00,Thursday
12,245874.99372042219
433,7656.646531875438
2,1, 7,13, 1, 6,35.00,40.00,Thursday
12,257218.1438669322
433,7656.646531875438
2,1, 7,13, 1, 6,40.00,45.00,Thursday
12,268533.35954548747
433,7656.646531875438
2,1, 7,13, 1, 6,45.00,50.00,Thursday
12,280364.57027529479
433,7656.646531875438
2,1, 7,13, 1, 6,50.00,55.00,Thursday
12,291709.2695073628
433,7656.646531875438
2,1, 7,13, 1, 6,55.00,60.00,Thursday
12,303748.27610062409
433,7656.646531875438
2,1, 7,13, 1, 7, 0.00, 5.00,Thursday
12,1110307.565579478
433,9614.853333304089
2,1, 7,13, 1, 7, 5.00,10.00,Thursday
12,1113639.8136543928
433,9614.853333304089
2,1, 7,13, 1, 7,10.00,15.00,Thursday
12,1117092.5806448144
433,9614.853333304089
2,1, 7,13, 1, 7,15.00,20.00,Thursday
12,1117244.407774731
433,9614.853333304089
2,1, 7,13, 1, 7,20.00,25.00,Thursday
12,1098063.7936337619
433,9614.853333304089
2,1, 7,13, 1, 7,25.00,30.00,Thursday
12,1065423.7525285823
433,9614.853333304089
2,1, 7,13, 1, 7,30.00,35.00,Thursday
12,1056911.3554209944
433,9614.853333304089
2,1, 7,13, 1, 7,35.00,40.00,Thursday
12,1047448.4477819394
433,9614.853333304089
2,1, 7,13, 1, 7,40.00,45.00,Thursday
12,1043365.7363374769
433,9614.853333304089
2,1, 7,13, 1, 7,45.00,50.00,Thursday
12,1042736.7793697099
433,9614.853333304089
2,1, 7,13, 1, 7,50.00,55.00,Thursday
12,1044138.0148267443
433,9614.853333304089
2,1, 7,13, 1, 7,55.00,60.00,Thursday
12,1046927.9469603623
433,9614.853333304089
2,1, 7,13, 1, 8, 0.00, 5.00,Thursday
12,1035790.1519896735
433,14488.823963746978
2,1, 7,13, 1, 8, 5.00,10.00,Thursday
12,1036489.6195390746
433,14488.823963746978
2,1, 7,13, 1, 8,10.00,15.00,Thursday
12,1039650.1660209366
433,14488.823963746978
2,1, 7,13, 1, 8,15.00,20.00,Thursday
12,1043599.7964369148
433,14488.823963746978
2,1, 7,13, 1, 8,20.00,25.00,Thursday
12,1048016.8572982568
433,14488.823963746978
2,1, 7,13, 1, 8,25.00,30.00,Thursday
12,1052862.3465930015
433,14488.823963746978
2,1, 7,13, 1, 8,30.00,35.00,Thursday
12,1324022.1215779228
433,14488.823963746978
2,1, 7,13, 1, 8,35.00,40.00,Thursday
12,1458860.8491237956
433,14488.823963746978
2,1, 7,13, 1, 8,40.00,45.00,Thursday
12,1464451.968149189
433,14488.823963746978
2,1, 7,13, 1, 8,45.00,50.00,Thursday
12,1470344.5695496125
433,14488.823963746978
2,1, 7,13, 1, 8,50.00,55.00,Thursday
12,1476547.9037514975
433,14488.823963746978
2,1, 7,13, 1, 8,55.00,60.00,Thursday
12,1154812.635866943
433,14488.823963746978
2,1, 7,13, 1, 9, 0.00, 5.00,Thursday
12,236775.0811891445
433,18726.169275020125
2,1, 7,13, 1, 9, 5.00,10.00,Thursday
12,213617.11504847226
433,18726.169275020125
2,1, 7,13, 1, 9,10.00,15.00,Thursday
12,213617.11504847226
433,18726.169275020125
2,1, 7,13, 1, 9,15.00,20.00,Thursday
12,255064.93963547398
433,18726.169275020125
2,1, 7,13, 1, 9,20.00,25.00,Thursday
12,336705.6923070855
433,18726.169275020125
2,1, 7,13, 1, 9,25.00,30.00,Thursday
12,393838.6551281144
433,18726.169275020125
2,1, 7,13, 1, 9,30.00,35.00,Thursday
12,423798.7954182315
433,18726.169275020125
2,1, 7,13, 1, 9,35.00,40.00,Thursday
12,450874.3491630573
433,18726.169275020125
2,1, 7,13, 1, 9,40.00,45.00,Thursday
12,475780.26804112046
433,18726.169275020125
2,1, 7,13, 1, 9,45.00,50.00,Thursday
12,500471.16186337688
433,18726.169275020125
2,1, 7,13, 1, 9,50.00,55.00,Thursday
12,538558.0699446986
433,18726.169275020125
2,1, 7,13, 1, 9,55.00,60.00,Thursday
12,561399.7829855136
433,18726.169275020125
2,1, 7,13, 1,10, 0.00, 5.00,Thursday
12,570107.9596854627
433,19468.544260805134
2,1, 7,13, 1,10, 5.00,10.00,Thursday
12,707393.2866330813
433,19468.544260805134
2,1, 7,13, 1,10,10.00,15.00,Thursday
12,988738.1850120912
433,19468.544260805134
2,1, 7,13, 1,10,15.00,20.00,Thursday
12,1000690.9524436327
433,19468.544260805134
2,1, 7,13, 1,10,20.00,25.00,Thursday
12,1013565.0426331381
433,19468.544260805134
2,1, 7,13, 1,10,25.00,30.00,Thursday
12,1025971.5883380747
433,19468.544260805134
2,1, 7,13, 1,10,30.00,35.00,Thursday
12,963310.4760886083
433,19468.544260805134
2,1, 7,13, 1,10,35.00,40.00,Thursday
12,652064.38808418
433,19468.544260805134
2,1, 7,13, 1,10,40.00,45.00,Thursday
12,661630.1121284071
433,19468.544260805134
2,1, 7,13, 1,10,45.00,50.00,Thursday
12,670397.7946522392
433,19468.544260805134
2,1, 7,13, 1,10,50.00,55.00,Thursday
12,678570.5180290754
433,19468.544260805134
2,1, 7,13, 1,10,55.00,60.00,Thursday
12,686359.1709456309
433,19468.544260805134
2,1, 7,13, 1,11, 0.00, 5.00,Thursday
12,689325.940652466
433,18747.358924073196
2,1, 7,13, 1,11, 5.00,10.00,Thursday
12,695258.4016451854
433,18747.358924073196
2,1, 7,13, 1,11,10.00,15.00,Thursday
12,701505.4675229234
433,18747.358924073196
2,1, 7,13, 1,11,15.00,20.00,Thursday
12,707835.442518085
433,18747.358924073196
2,1, 7,13, 1,11,20.00,25.00,Thursday
12,714152.3447260112
433,18747.358924073196
2,1, 7,13, 1,11,25.00,30.00,Thursday
12,729249.8160329332
433,18747.358924073196
2,1, 7,13, 1,11,30.00,35.00,Thursday
12,729473.7931412397
433,18747.358924073196
2,1, 7,13, 1,11,35.00,40.00,Thursday
12,734885.5113102761
433,18747.358924073196
2,1, 7,13, 1,11,40.00,45.00,Thursday
12,742150.5367269439
433,18747.358924073196
2,1, 7,13, 1,11,45.00,50.00,Thursday
12,749983.157334932
433,18747.358924073196
2,1, 7,13, 1,11,50.00,55.00,Thursday
12,758097.7895903802
433,18747.358924073196
2,1, 7,13, 1,11,55.00,60.00,Thursday
12,766263.7817640544
433,18747.358924073196
2,1, 7,13, 1,12, 0.00, 5.00,Thursday
12,770280.7930298634
433,18453.50035497928
2,1, 7,13, 1,12, 5.00,10.00,Thursday
12,775161.9613730226
433,18453.50035497928
2,1, 7,13, 1,12,10.00,15.00,Thursday
12,780753.0411953344
433,18453.50035497928
2,1, 7,13, 1,12,15.00,20.00,Thursday
12,786835.6717276408
433,18453.50035497928
2,1, 7,13, 1,12,20.00,25.00,Thursday
12,792795.7169426428
433,18453.50035497928
2,1, 7,13, 1,12,25.00,30.00,Thursday
12,798249.1860184656
433,18453.50035497928
2,1, 7,13, 1,12,30.00,35.00,Thursday
12,803497.9984894996
433,18453.50035497928
2,1, 7,13, 1,12,35.00,40.00,Thursday
12,808903.530766187
433,18453.50035497928
2,1, 7,13, 1,12,40.00,45.00,Thursday
12,814430.4569746154
433,18453.50035497928
2,1, 7,13, 1,12,45.00,50.00,Thursday
12,820025.0170427181
433,18453.50035497928
2,1, 7,13, 1,12,50.00,55.00,Thursday
12,825786.3843977777
433,18453.50035497928
2,1, 7,13, 1,12,55.00,60.00,Thursday
12,835577.4562132037
433,18453.50035497928
2,1, 7,13, 1,13, 0.00, 5.00,Thursday
12,874792.5925964435
433,14652.056794201717
2,1, 7,13, 1,13, 5.00,10.00,Thursday
12,905605.0607813816
433,14652.056794201717
2,1, 7,13, 1,13,10.00,15.00,Thursday
12,913477.5539992331
433,14652.056794201717
2,1, 7,13, 1,13,15.00,20.00,Thursday
12,919281.6086687056
433,14652.056794201717
2,1, 7,13, 1,13,20.00,25.00,Thursday
12,924731.8080323329
433,14652.056794201717
2,1, 7,13, 1,13,25.00,30.00,Thursday
12,931093.3325549901
433,14652.056794201717
2,1, 7,13, 1,13,30.00,35.00,Thursday
12,936149.3220525463
433,14652.056794201717
2,1, 7,13, 1,13,35.00,40.00,Thursday
12,942076.4198707249
433,14652.056794201717
2,1, 7,13, 1,13,40.00,45.00,Thursday
12,948160.0896335348
433,14652.056794201717
2,1, 7,13, 1,13,45.00,50.00,Thursday
12,954178.9635931548
433,14652.056794201717
2,1, 7,13, 1,13,50.00,55.00,Thursday
12,959906.3056802962
433,14652.056794201717
2,1, 7,13, 1,13,55.00,60.00,Thursday
12,965449.8000218636
433,14652.056794201717
2,1, 7,13, 1,14, 0.00, 5.00,Thursday
12,936816.8854784733
433,13448.408369715471
2,1, 7,13, 1,14, 5.00,10.00,Thursday
12,920207.5155547856
433,13448.408369715471
2,1, 7,13, 1,14,10.00,15.00,Thursday
12,927827.8350581447
433,13448.408369715471
2,1, 7,13, 1,14,15.00,20.00,Thursday
12,937976.1407972309
433,13448.408369715471
2,1, 7,13, 1,14,20.00,25.00,Thursday
12,947923.3975067778
433,13448.408369715471
2,1, 7,13, 1,14,25.00,30.00,Thursday
12,958632.87047453
433,13448.408369715471
2,1, 7,13, 1,14,30.00,35.00,Thursday
12,969739.739715368
433,13448.408369715471
2,1, 7,13, 1,14,35.00,40.00,Thursday
12,981282.4814552418
433,13448.408369715471
2,1, 7,13, 1,14,40.00,45.00,Thursday
12,993667.1289358921
433,13448.408369715471
2,1, 7,13, 1,14,45.00,50.00,Thursday
12,1007124.9137490366
433,13448.408369715471
2,1, 7,13, 1,14,50.00,55.00,Thursday
12,1021595.8853380899
433,13448.408369715471
2,1, 7,13, 1,14,55.00,60.00,Thursday
12,1036917.7177010406
433,13448.408369715471
2,1, 7,13, 1,15, 0.00, 5.00,Thursday
12,1041663.088684414
433,13250.875607830436
2,1, 7,13, 1,15, 5.00,10.00,Thursday
12,1049086.9759056923
433,13250.875607830436
2,1, 7,13, 1,15,10.00,15.00,Thursday
12,1057046.654864024
433,13250.875607830436
2,1, 7,13, 1,15,15.00,20.00,Thursday
12,1065288.7320693774
433,13250.875607830436
2,1, 7,13, 1,15,20.00,25.00,Thursday
12,1074296.9297628224
433,13250.875607830436
2,1, 7,13, 1,15,25.00,30.00,Thursday
12,1082858.361064267
433,13250.875607830436
2,1, 7,13, 1,15,30.00,35.00,Thursday
12,1093253.1591294506
433,13250.875607830436
2,1, 7,13, 1,15,35.00,40.00,Thursday
12,1100914.8844685478
433,13250.875607830436
2,1, 7,13, 1,15,40.00,45.00,Thursday
12,1109246.9386269786
433,13250.875607830436
2,1, 7,13, 1,15,45.00,50.00,Thursday
12,1117654.5419810443
433,13250.875607830436
2,1, 7,13, 1,15,50.00,55.00,Thursday
12,1125962.8603475635
433,13250.875607830436
2,1, 7,13, 1,15,55.00,60.00,Thursday
12,1134042.5353191798
433,13250.875607830436
2,1, 7,13, 1,16, 0.00, 5.00,Thursday
12,1207325.7944560799
433,14816.485640816256
2,1, 7,13, 1,16, 5.00,10.00,Thursday
12,1236415.1610844804
433,14816.485640816256
2,1, 7,13, 1,16,10.00,15.00,Thursday
12,1249676.105697813
433,14816.485640816256
2,1, 7,13, 1,16,15.00,20.00,Thursday
12,1261745.1358516843
433,14816.485640816256
2,1, 7,13, 1,16,20.00,25.00,Thursday
12,1272939.3094208504
433,14816.485640816256
2,1, 7,13, 1,16,25.00,30.00,Thursday
12,1283384.1548107467
433,14816.485640816256
2,1, 7,13, 1,16,30.00,35.00,Thursday
12,1294884.27481956
433,14816.485640816256
2,1, 7,13, 1,16,35.00,40.00,Thursday
12,1305261.160995144
433,14816.485640816256
2,1, 7,13, 1,16,40.00,45.00,Thursday
12,1315329.5001624276
433,14816.485640816256
2,1, 7,13, 1,16,45.00,50.00,Thursday
12,1325292.0937545938
433,14816.485640816256
2,1, 7,13, 1,16,50.00,55.00,Thursday
12,1335037.186279444
433,14816.485640816256
2,1, 7,13, 1,16,55.00,60.00,Thursday
12,1344511.0130419536
433,14816.485640816256
2,1, 7,13, 1,17, 0.00, 5.00,Thursday
12,1435057.780273596
433,15078.99868267126
2,1, 7,13, 1,17, 5.00,10.00,Thursday
12,1423861.2915978626
433,15078.99868267126
2,1, 7,13, 1,17,10.00,15.00,Thursday
12,1421671.4204130928
433,15078.99868267126
2,1, 7,13, 1,17,15.00,20.00,Thursday
12,1419487.1938454663
433,15078.99868267126
2,1, 7,13, 1,17,20.00,25.00,Thursday
12,1417308.6412178735
433,15078.99868267126
2,1, 7,13, 1,17,25.00,30.00,Thursday
12,1415135.791795943
433,15078.99868267126
2,1, 7,13, 1,17,30.00,35.00,Thursday
12,1412968.6747880406
433,15078.99868267126
2,1, 7,13, 1,17,35.00,40.00,Thursday
12,1410807.31934527
433,15078.99868267126
2,1, 7,13, 1,17,40.00,45.00,Thursday
12,1408651.7545614744
433,15078.99868267126
2,1, 7,13, 1,17,45.00,50.00,Thursday
12,1406502.009473232
433,15078.99868267126
2,1, 7,13, 1,17,50.00,55.00,Thursday
12,1404358.1130598626
433,15078.99868267126
2,1, 7,13, 1,17,55.00,60.00,Thursday
12,1402220.0942434204
433,15078.99868267126
2,1, 7,13, 1,18, 0.00, 5.00,Thursday
12,1398361.2583719907
433,11306.018861127124
2,1, 7,13, 1,18, 5.00,10.00,Thursday
12,1390904.325654144
433,11306.018861127124
2,1, 7,13, 1,18,10.00,15.00,Thursday
12,1383524.1901309374
433,11306.018861127124
2,1, 7,13, 1,18,15.00,20.00,Thursday
12,1376222.114330505
433,11306.018861127124
2,1, 7,13, 1,18,20.00,25.00,Thursday
12,1368999.3517329319
433,11306.018861127124
2,1, 7,13, 1,18,25.00,30.00,Thursday
12,1361857.1467702552
433,11306.018861127124
2,1, 7,13, 1,18,30.00,35.00,Thursday
12,1354796.7348264633
433,11306.018861127124
2,1, 7,13, 1,18,35.00,40.00,Thursday
12,1611413.582153504
433,11306.018861127124
2,1, 7,13, 1,18,40.00,45.00,Thursday
12,1736572.131023744
433,11306.018861127124
2,1, 7,13, 1,18,45.00,50.00,Thursday
12,1729764.419960052
433,11306.018861127124
2,1, 7,13, 1,18,50.00,55.00,Thursday
12,1723043.3529707136
433,11306.018861127124
2,1, 7,13, 1,18,55.00,60.00,Thursday
12,1716410.1201994755
433,11306.018861127124
2,1, 7,13, 1,19, 0.00, 5.00,Thursday
12,1718358.0490520325
433,9894.684704515661
2,1, 7,13, 1,19, 5.00,10.00,Thursday
12,1715677.4699966745
433,9894.684704515661
2,1, 7,13, 1,19,10.00,15.00,Thursday
12,1659722.8642271122
433,9894.684704515661
2,1, 7,13, 1,19,15.00,20.00,Thursday
12,1314715.8805789548
433,9894.684704515661
2,1, 7,13, 1,19,20.00,25.00,Thursday
12,1312080.9758966575
433,9894.684704515661
2,1, 7,13, 1,19,25.00,30.00,Thursday
12,1309461.4565257505
433,9894.684704515661
2,1, 7,13, 1,19,30.00,35.00,Thursday
12,1306857.4022992245
433,9894.684704515661
2,1, 7,13, 1,19,35.00,40.00,Thursday
12,1304268.892793754
433,9894.684704515661
2,1, 7,13, 1,19,40.00,45.00,Thursday
12,1301696.007329698
433,9894.684704515661
2,1, 7,13, 1,19,45.00,50.00,Thursday
12,1299138.8249710976
433,9894.684704515661
2,1, 7,13, 1,19,50.00,55.00,Thursday
12,1296597.4245256778
433,9894.684704515661
2,1, 7,13, 1,19,55.00,60.00,Thursday
12,1777352.9979635517
433,9894.684704515661
2,1, 7,13, 1,20, 0.00, 5.00,Thursday
12,1714176.8449426406
433,8682.52463554691
2,1, 7,13, 1,20, 5.00,10.00,Thursday
12,1886470.6321198785
433,8682.52463554691
2,1, 7,13, 1,20,10.00,15.00,Thursday
12,1928915.7072937992
433,8682.52463554691
2,1, 7,13, 1,20,15.00,20.00,Thursday
12,1704019.943310245
433,8682.52463554691
2,1, 7,13, 1,20,20.00,25.00,Thursday
12,1925129.8121149888
433,8682.52463554691
2,1, 7,13, 1,20,25.00,30.00,Thursday
12,1921836.929348298
433,8682.52463554691
2,1, 7,13, 1,20,30.00,35.00,Thursday
12,1694141.4931746049
433,8682.52463554691
2,1, 7,13, 1,20,35.00,40.00,Thursday
12,1690911.4814782437
433,8682.52463554691
2,1, 7,13, 1,20,40.00,45.00,Thursday
12,1687713.2002732093
433,8682.52463554691
2,1, 7,13, 1,20,45.00,50.00,Thursday
12,1684546.8449753526
433,8682.52463554691
2,1, 7,13, 1,20,50.00,55.00,Thursday
12,1681412.6100843296
433,8682.52463554691
2,1, 7,13, 1,20,55.00,60.00,Thursday
12,1678310.6891836045
433,8682.52463554691
2,1, 7,13, 1,21, 0.00, 5.00,Thursday
12,1701119.5301689606
433,7936.845198219909
2,1, 7,13, 1,21, 5.00,10.00,Thursday
12,1697271.7202286097
433,7936.845198219909
2,1, 7,13, 1,21,10.00,15.00,Thursday
12,1693477.3533357897
433,7936.845198219909
2,1, 7,13, 1,21,15.00,20.00,Thursday
12,1689736.819740515
433,7936.845198219909
2,1, 7,13, 1,21,20.00,25.00,Thursday
12,1686050.5072888316
433,7936.845198219909
2,1, 7,13, 1,21,25.00,30.00,Thursday
12,1682418.8014228184
433,7936.845198219909
2,1, 7,13, 1,21,30.00,35.00,Thursday
12,1678842.0851805863
433,7936.845198219909
2,1, 7,13, 1,21,35.00,40.00,Thursday
12,1675320.7391962785
433,7936.845198219909
2,1, 7,13, 1,21,40.00,45.00,Thursday
12,1671855.1417000709
433,7936.845198219909
2,1, 7,13, 1,21,45.00,50.00,Thursday
12,1668445.6685181719
433,7936.845198219909
2,1, 7,13, 1,21,50.00,55.00,Thursday
12,1665092.6930728218
433,7936.845198219909
2,1, 7,13, 1,21,55.00,60.00,Thursday
12,1661796.5863822939
433,7936.845198219909
2,1, 7,13, 1,22, 0.00, 5.00,Thursday
12,568014.5962182751
433,6398.9077467159499
2,1, 7,13, 1,22, 5.00,10.00,Thursday
12,275247.5673196872
433,6398.9077467159499
2,1, 7,13, 1,22,10.00,15.00,Thursday
12,339681.44295225958
433,6398.9077467159499
2,1, 7,13, 1,22,15.00,20.00,Thursday
12,785918.8589788623
433,6398.9077467159499
2,1, 7,13, 1,22,20.00,25.00,Thursday
12,861792.5236979872
433,6398.9077467159499
2,1, 7,13, 1,22,25.00,30.00,Thursday
12,889510.2016133943
433,6398.9077467159499
2,1, 7,13, 1,22,30.00,35.00,Thursday
12,887215.3584622925
433,6398.9077467159499
2,1, 7,13, 1,22,35.00,40.00,Thursday
12,898298.2742642989
433,6398.9077467159499
2,1, 7,13, 1,22,40.00,45.00,Thursday
12,898395.7199884596
433,6398.9077467159499
2,1, 7,13, 1,22,45.00,50.00,Thursday
12,901549.6398347524
433,6398.9077467159499
2,1, 7,13, 1,22,50.00,55.00,Thursday
12,905148.8101048246
433,6398.9077467159499
2,1, 7,13, 1,22,55.00,60.00,Thursday
12,911154.3071382676
433,6398.9077467159499
2,1, 7,13, 1,23, 0.00, 5.00,Thursday
12,799371.0745552181
433,5594.4170377723389
2,1, 7,13, 1,23, 5.00,10.00,Thursday
12,505935.0629044773
433,5594.4170377723389
2,1, 7,13, 1,23,10.00,15.00,Thursday
12,394006.0824823569
433,5594.4170377723389
2,1, 7,13, 1,23,15.00,20.00,Thursday
12,391313.13817497619
433,5594.4170377723389
2,1, 7,13, 1,23,20.00,25.00,Thursday
12,388667.0956094248
433,5594.4170377723389
2,1, 7,13, 1,23,25.00,30.00,Thursday
12,385894.8454917261
433,5594.4170377723389
2,1, 7,13, 1,23,30.00,35.00,Thursday
12,382973.58813487066
433,5594.4170377723389
2,1, 7,13, 1,23,35.00,40.00,Thursday
12,379886.0599327916
433,5594.4170377723389
2,1, 7,13, 1,23,40.00,45.00,Thursday
12,376650.36995785936
433,5594.4170377723389
2,1, 7,13, 1,23,45.00,50.00,Thursday
12,373262.2415525488
433,5594.4170377723389
2,1, 7,13, 1,23,50.00,55.00,Thursday
12,369733.85084384426
433,5594.4170377723389
2,1, 7,13, 1,23,55.00,60.00,Thursday
12,366046.65397785397
433,5594.4170377723389
2,1, 7,13, 1,24, 0.00, 5.00,Thursday
12,306415.5652518024
433,4159.762847949998
2,1, 7,13, 1,24, 5.00,10.00,Thursday
12,301203.0680453136
433,4159.762847949998
2,1, 7,13, 1,24,10.00,15.00,Thursday
12,298622.8391988944
433,4159.762847949998
2,1, 7,13, 1,24,15.00,20.00,Thursday
12,291843.1483930705
433,4159.762847949998
2,1, 7,13, 1,24,20.00,25.00,Thursday
12,287027.16259900855
433,4159.762847949998
2,1, 7,13, 1,24,25.00,30.00,Thursday
12,282793.4864772997
433,4159.762847949998
2,1, 7,13, 1,24,30.00,35.00,Thursday
12,278693.93834813186
433,4159.762847949998
2,1, 7,13, 1,24,35.00,40.00,Thursday
12,274603.0510650432
433,4159.762847949998
2,1, 7,13, 1,24,40.00,45.00,Thursday
12,270490.108774903
433,4159.762847949998
2,1, 7,13, 1,24,45.00,50.00,Thursday
12,266348.45760268616
433,4159.762847949998
2,1, 7,13, 1,24,50.00,55.00,Thursday
12,262181.0120557106
433,4159.762847949998
2,1, 7,13, 1,24,55.00,60.00,Thursday
12,257991.0891347461
433,4159.762847949998
3,1, 7,13, 1,Thursday
14,235333756.43123637,99531.57538283289, 4,25,1928915.7072937992,20,15
435,2997880.5023061505,2467.006449290023, 2, 5,19468.544260805134,10, 5
2,2, 7,14, 1, 1, 0.00, 5.00,Friday
12,175324.26723552485
433,2901.1405503252715
2,2, 7,14, 1, 1, 5.00,10.00,Friday
12,150939.1642726759
433,2901.1405503252715
2,2, 7,14, 1, 1,10.00,15.00,Friday
12,138945.9222584868
433,2901.1405503252715
2,2, 7,14, 1, 1,15.00,20.00,Friday
12,130522.90448658093
433,2901.1405503252715
2,2, 7,14, 1, 1,20.00,25.00,Friday
12,123157.14202904028
433,2901.1405503252715
2,2, 7,14, 1, 1,25.00,30.00,Friday
12,116016.40348393345
433,2901.1405503252715
2,2, 7,14, 1, 1,30.00,35.00,Friday
12,109999.93671986037
433,2901.1405503252715
2,2, 7,14, 1, 1,35.00,40.00,Friday
12,109999.93671986037
433,2901.1405503252715
2,2, 7,14, 1, 1,40.00,45.00,Friday
12,109999.93671986037
433,2901.1405503252715
2,2, 7,14, 1, 1,45.00,50.00,Friday
12,109999.93671986037
433,2901.1405503252715
2,2, 7,14, 1, 1,50.00,55.00,Friday
12,109999.93671986037
433,2901.1405503252715
2,2, 7,14, 1, 1,55.00,60.00,Friday
12,109999.93671986037
433,2901.1405503252715
2,2, 7,14, 1, 2, 0.00, 5.00,Friday
12,100450.69736281055
433,2467.006449290023
2,2, 7,14, 1, 2, 5.00,10.00,Friday
12,100450.69736281055
433,2467.006449290023
2,2, 7,14, 1, 2,10.00,15.00,Friday
12,100450.69736281055
433,2467.006449290023
2,2, 7,14, 1, 2,15.00,20.00,Friday
12,100450.69736281055
433,2467.006449290023
2,2, 7,14, 1, 2,20.00,25.00,Friday
12,100450.69736281055
433,2467.006449290023
2,2, 7,14, 1, 2,25.00,30.00,Friday
12,100450.69736281055
433,2467.006449290023
2,2, 7,14, 1, 2,30.00,35.00,Friday
12,100450.69736281055
433,2467.006449290023
2,2, 7,14, 1, 2,35.00,40.00,Friday
12,100450.69736281055
433,2467.006449290023
2,2, 7,14, 1, 2,40.00,45.00,Friday
12,100450.69736281055
433,2467.006449290023
2,2, 7,14, 1, 2,45.00,50.00,Friday
12,100450.69736281055
433,2467.006449290023
2,2, 7,14, 1, 2,50.00,55.00,Friday
12,100450.69736281055
433,2467.006449290023
2,2, 7,14, 1, 2,55.00,60.00,Friday
12,100450.69736281055
433,2467.006449290023
2,2, 7,14, 1, 3, 0.00, 5.00,Friday
12,99066.86333966597
433,2534.6515561097428
2,2, 7,14, 1, 3, 5.00,10.00,Friday
12,99066.86333966597
433,2534.6515561097428
2,2, 7,14, 1, 3,10.00,15.00,Friday
12,99066.86333966597
433,2534.6515561097428
2,2, 7,14, 1, 3,15.00,20.00,Friday
12,99066.86333966597
433,2534.6515561097428
2,2, 7,14, 1, 3,20.00,25.00,Friday
12,99066.86333966597
433,2534.6515561097428
2,2, 7,14, 1, 3,25.00,30.00,Friday
12,99066.86333966597
433,2534.6515561097428
2,2, 7,14, 1, 3,30.00,35.00,Friday
12,99066.86333966597
433,2534.6515561097428
2,2, 7,14, 1, 3,35.00,40.00,Friday
12,99066.86333966597
433,2534.6515561097428
2,2, 7,14, 1, 3,40.00,45.00,Friday
12,99066.86333966597
433,2534.6515561097428
2,2, 7,14, 1, 3,45.00,50.00,Friday
12,99066.86333966597
433,2534.6515561097428
2,2, 7,14, 1, 3,50.00,55.00,Friday
12,99066.86333966597
433,2534.6515561097428
2,2, 7,14, 1, 3,55.00,60.00,Friday
12,99066.86333966597
433,2534.6515561097428
2,2, 7,14, 1, 4, 0.00, 5.00,Friday
12,99531.57538283289
433,3858.2928118777824
2,2, 7,14, 1, 4, 5.00,10.00,Friday
12,99531.57538283289
433,3858.2928118777824
2,2, 7,14, 1, 4,10.00,15.00,Friday
12,99531.57538283289
433,3858.2928118777824
2,2, 7,14, 1, 4,15.00,20.00,Friday
12,99531.57538283289
433,3858.2928118777824
2,2, 7,14, 1, 4,20.00,25.00,Friday
12,99531.57538283289
433,3858.2928118777824
2,2, 7,14, 1, 4,25.00,30.00,Friday
12,99531.57538283289
433,3858.2928118777824
2,2, 7,14, 1, 4,30.00,35.00,Friday
12,99531.57538283289
433,3858.2928118777824
2,2, 7,14, 1, 4,35.00,40.00,Friday
12,99531.57538283289
433,3858.2928118777824
2,2, 7,14, 1, 4,40.00,45.00,Friday
12,99531.57538283289
433,3858.2928118777824
2,2, 7,14, 1, 4,45.00,50.00,Friday
12,99531.57538283289
433,3858.2928118777824
2,2, 7,14, 1, 4,50.00,55.00,Friday
12,99531.57538283289
433,3858.2928118777824
2,2, 7,14, 1, 4,55.00,60.00,Friday
12,99531.57538283289
433,3858.2928118777824
2,2, 7,14, 1, 5, 0.00, 5.00,Friday
12,130494.48943119642
433,5686.401053688722
2,2, 7,14, 1, 5, 5.00,10.00,Friday
12,130494.48943119642
433,5686.401053688722
2,2, 7,14, 1, 5,10.00,15.00,Friday
12,130494.48943119642
433,5686.401053688722
2,2, 7,14, 1, 5,15.00,20.00,Friday
12,130494.48943119642
433,5686.401053688722
2,2, 7,14, 1, 5,20.00,25.00,Friday
12,130494.48943119642
433,5686.401053688722
2,2, 7,14, 1, 5,25.00,30.00,Friday
12,130494.48943119642
433,5686.401053688722
2,2, 7,14, 1, 5,30.00,35.00,Friday
12,130494.48943119642
433,5686.401053688722
2,2, 7,14, 1, 5,35.00,40.00,Friday
12,130494.48943119642
433,5686.401053688722
2,2, 7,14, 1, 5,40.00,45.00,Friday
12,130494.48943119642
433,5686.401053688722
2,2, 7,14, 1, 5,45.00,50.00,Friday
12,130494.48943119642
433,5686.401053688722
2,2, 7,14, 1, 5,50.00,55.00,Friday
12,130494.48943119642
433,5686.401053688722
2,2, 7,14, 1, 5,55.00,60.00,Friday
12,130494.48943119642
433,5686.401053688722
2,2, 7,14, 1, 6, 0.00, 5.00,Friday
12,194219.89970509456
433,7656.646531875438
2,2, 7,14, 1, 6, 5.00,10.00,Friday
12,194219.89970509456
433,7656.646531875438
2,2, 7,14, 1, 6,10.00,15.00,Friday
12,194219.89970509456
433,7656.646531875438
2,2, 7,14, 1, 6,15.00,20.00,Friday
12,194219.89970509456
433,7656.646531875438
2,2, 7,14, 1, 6,20.00,25.00,Friday
12,194219.89970509456
433,7656.646531875438
2,2, 7,14, 1, 6,25.00,30.00,Friday
12,194219.89970509456
433,7656.646531875438
2,2, 7,14, 1, 6,30.00,35.00,Friday
12,194219.89970509456
433,7656.646531875438
2,2, 7,14, 1, 6,35.00,40.00,Friday
12,194219.89970509456
433,7656.646531875438
2,2, 7,14, 1, 6,40.00,45.00,Friday
12,194219.89970509456
433,7656.646531875438
2,2, 7,14, 1, 6,45.00,50.00,Friday
12,194219.89970509456
433,7656.646531875438
2,2, 7,14, 1, 6,50.00,55.00,Friday
12,194219.89970509456